
                                 *****************
                                 * O   R   C   A *
                                 *****************

                                            #,                                       
                                            ###                                      
                                            ####                                     
                                            #####                                    
                                            ######                                   
                                           ########,                                 
                                     ,,################,,,,,                         
                               ,,#################################,,                 
                          ,,##########################################,,             
                       ,#########################################, ''#####,          
                    ,#############################################,,   '####,        
                  ,##################################################,,,,####,       
                ,###########''''           ''''###############################       
              ,#####''   ,,,,##########,,,,          '''####'''          '####       
            ,##' ,,,,###########################,,,                        '##       
           ' ,,###''''                  '''############,,,                           
         ,,##''                                '''############,,,,        ,,,,,,###''
      ,#''                                            '''#######################'''  
     '                                                          ''''####''''         
             ,#######,   #######,   ,#######,      ##                                
            ,#'     '#,  ##    ##  ,#'     '#,    #''#        ,####,   ,####,        
            ##       ##  ##   ,#'  ##            #'  '#       #'       #'  '#        
            ##       ##  #######   ##           ,######,      #####,   #    #        
            '#,     ,#'  ##    ##  '#,     ,#' ,#      #,     #,   #   #,  ,#        
             '#######'   ##     ##  '#######'  #'      '#     '####' # '####'        



                #########################################################
                #                        -***-                          #
                #          Department of theory and spectroscopy        #
                #                                                       #
                #                      Frank Neese                      #
                #                                                       #
                #     Directorship, Architecture, Infrastructure        #
                #                    SHARK, DRIVERS                     #
                #        Core code/Algorithms in most modules           #
                #                                                       #
                #        Max Planck Institute fuer Kohlenforschung      #
                #                Kaiser Wilhelm Platz 1                 #
                #                 D-45470 Muelheim/Ruhr                 #
                #                      Germany                          #
                #                                                       #
                #                  All rights reserved                  #
                #                        -***-                          #
                #########################################################


                         Program Version 6.0.1  -  RELEASE   -


 With contributions from (in alphabetic order):
[Max-Planck-Institut fuer Kohlenforschung]                               
  Daniel Aravena         : Magnetic Suceptibility                        
  Michael Atanasov       : Ab Initio Ligand Field Theory (pilot matlab implementation)
  Alexander A. Auer      : GIAO ZORA, VPT2 properties, NMR spectrum      
  Ute Becker             : All parallelization in ORCA, NUMFREQ, NUMCALC 
  Giovanni Bistoni       : ED, misc. LED, open-shell LED, HFLD           
  Martin Brehm           : Molecular dynamics                            
  Dmytro Bykov           : pre 5.0 version of the SCF Hessian            
  Marcos Casanova-Páez   : Triplet and SCS-CIS(D). UHF-(DLPNO)-IP/EA/STEOM-CCSD. UHF-CVS-IP/STEOM-CCSD   
  Vijay G. Chilkuri      : MRCI spin determinant printing, contributions to CSF-ICE 
  Pauline Colinet        : FMM embedding                                 
  Dipayan Datta          : RHF DLPNO-CCSD density                        
  Achintya Kumar Dutta   : EOM-CC, STEOM-CC                              
  Nicolas Foglia         : Exact transition moments, OPA infrastructure, MCD improvements    
  Dmitry Ganyushin       : Spin-Orbit,Spin-Spin,Magnetic field MRCI      
  Miquel Garcia-Rates    : C-PCM and meta-GGA Hessian, CCSD/C-PCM, Gaussian charge scheme 
  Tiago L. C. Gouveia    : GS-ROHF, GS-ROCIS                             
  Yang Guo               : DLPNO-NEVPT2, F12-NEVPT2, CIM, IAO-localization        
  Andreas Hansen         : Spin unrestricted coupled pair/coupled cluster methods 
  Ingolf Harden          : AUTO-CI MPn and infrastructure                
  Benjamin Helmich-Paris : MC-RPA, TRAH-(SCF,CASSCF), AVAS, COSX integrals, SCF dyn. polar. 
  Lee Huntington         : MR-EOM, pCC                                   
  Robert Izsak           : Overlap fitted RIJCOSX, COSX-SCS-MP3, EOM     
  Riya Kayal             : Wick's Theorem for AUTO-CI, AUTO-CI UHF-CCSDT 
  Emily Kempfer          : AUTO-CI, RHF CISDT and CCSDT                  
  Christian Kollmar      : KDIIS, OOCD, Brueckner-CCSD(T), CCSD density, CASPT2, CASPT2-K, improved NEVPT2 
  Axel Koslowski         : Symmetry handling                             
  Simone Kossmann        : meta-GGA functionals, TD-DFT gradient, OOMP2, (MP2 Hessian; deprecated post 5.0) 
  Lucas Lang             : DCDCAS                                        
  Marvin Lechner         : AUTO-CI (C++ implementation), FIC-MRCC        
  Spencer Leger          : CASSCF response                               
  Dagmar Lenk            : GEPOL surface, SMD, ORCA-2-JSON               
  Dimitrios Liakos       : Extrapolation schemes; Compound Job, initial MDCI parallelization 
  Dimitrios Manganas     : Further ROCIS development; embedding schemes. LFT, Crystal Embedding 
  Dimitrios Pantazis     : SARC Basis sets                               
  Anastasios Papadopoulos: AUTO-CI, single reference methods and gradients 
  Taras Petrenko         : pre 6.0 DFT Hessian and TD-DFT gradient, (ASA, deprecated), ECA, 1-Electron XAS/XES, NRVS 
  Peter Pinski           : DLPNO-MP2, DLPNO-MP2 Gradient                 
  Christoph Reimann      : Effective Core Potentials                     
  Marius Retegan         : Local ZFS, SOC                                
  Christoph Riplinger    : Optimizer, TS searches, QM/MM, DLPNO-CCSD(T), (RO)-DLPNO pert. Triples 
  Michael Roemelt        : Original ROCIS implementation                 
  Masaaki Saitow         : Open-shell DLPNO-CCSD energy and density      
  Barbara Sandhoefer     : DKH picture change effects                    
  Kantharuban Sivalingam : CASSCF convergence/infrastructure, NEVPT2 and variants, FIC-MRCI 
  Bernardo de Souza      : ESD, SOC TD-DFT                               
  Georgi L. Stoychev     : AutoAux, RI-MP2 NMR, DLPNO-MP2 response, X2C  
  Van Anh Tran           : RI-MP2 g-tensors                              
  Willem Van den Heuvel  : Paramagnetic NMR                              
  Zikuan Wang            : NOTCH, Electric field optimization            
  Frank Wennmohs         : Technical directorship and infrastructure     
  Hang Xu                : AUTO-CI-Response properties                   
                                                                         
[FACCTs GmbH]                                                            
  Markus Bursch, Miquel Garcia-Rates, Christoph Riplinger, Bernardo de Souza, Georgi L. Stoychev 
                                                                 
  APM, Basis sets (HGBS, AHGBS, def-TZVP (Ac-Lr), def2-XVPD (La-Lu)), CI-OPT, improved COSX, DLPNO-Multilevel,           
  DOCKER, DRACO, updates on ESD, GOAT, IRC, LR-CPCM, MBIS, meta-GGA TD-DFT gradient, ML-optimized integration grids, 
  MM, NACMEs, nearIR, NEB, NEB-TS, NL-DFT gradient (VV10), 2- and 3-layer-ONIOM, interface openCOSMO-RS, QMMM,   
  Crystal-QMMM, SF, symmetry and pop. for TD-DFT, r2SCAN hybrids, SOLVATOR                                   
                                                                         
[Other institutions]                                                     
  V. Asgeirsson          : NEB                                           
  Christoph Bannwarth    : sTDA-DFT, sTD-DFT, PBEh-3c, B97-3c, D3        
  Sebastian Ehlert       : rSCAN, r2SCAN, r2SCAN-3c, D4, dhf basis sets  
  Marvin Friede          : D4 for Fr, Ra, Ac-Lr                          
  Lars Goerigk           : TD-DFT with DH, B97 family of functionals     
  Stefan Grimme          : VdW corrections, initial TS optimization, DFT functionals, gCP, sTDA/sTD-DF 
  Waldemar Hujo          : DFT-NL                                        
  H. Jonsson             : NEB                                           
  Holger Kruse           : gCP                                           
  Marcel Mueller         : wB97X-3c, vDZP basis set                      
  Hagen Neugebauer       : wr2SCAN                                       
  Tobias Risthaus        : range-separated hybrid DFT                    
  Lukas Wittmann         : regularized MP2, r2SCAN double-hybrids, wr2SCAN        
                                                                         
We gratefully acknowledge several colleagues who have allowed us to      
interface, adapt or use parts of their codes:                            
  Ed Valeev, F. Pavosevic, A. Kumar             : LibInt (2-el integral package), F12 methods 
  Garnet Chan, S. Sharma, J. Yang, R. Olivares  : DMRG                   
  Ulf Ekstrom                                   : XCFun DFT Library      
  Mihaly Kallay                                 : mrcc  (arbitrary order and MRCC methods)
  Frank Weinhold                                : gennbo (NPA and NBO analysis)           
  Simon Mueller                                 : openCOSMO-RS                            
  Christopher J. Cramer and Donald G. Truhlar   : smd solvation model                     
  S Lehtola, MJT Oliveira, MAL Marques          : LibXC Library                           
  Liviu Ungur et al                             : ANISO software                          


 Your calculation uses the libint2 library for the computation of 2-el integrals
 For citations please refer to: http://libint.valeyev.net

 Your ORCA version has been built with support for libXC version: 6.2.2
 For citations please refer to: https://libxc.gitlab.io

 This ORCA versions uses:
   CBLAS   interface :  Fast vector & matrix operations
   LAPACKE interface :  Fast linear algebra routines
   SCALAPACK package :  Parallel linear algebra routines
   Shared memory     :  Shared parallel matrices
   BLAS/LAPACK       :  OpenBLAS 0.3.27  USE64BITINT DYNAMIC_ARCH NO_AFFINITY SkylakeX SINGLE_THREADED
        Core in use  :  SkylakeX
   Copyright (c) 2011-2014, The OpenBLAS Project


NOTE: MaxCore=5000 MB was set to SCF,MP2,MDCI,CIPSI,MRCI and CIS
      => If you want to overwrite this, your respective input block should be placed after the MaxCore statement
Your calculation utilizes the atom-pairwise dispersion correction
with the zero-damping scheme (D30)


XCFun DFT library Copyright 2009-2010 Ulf Ekstrom and contributors.
See http://admol.org/xcfun for more information.
This is free software; see the source code for copying conditions.
There is ABSOLUTELY NO WARRANTY; not even for MERCHANTABILITY or FITNESS FOR A PARTICULAR PURPOSE.
For details see the documentation.
Scientific users of this library should cite U. Ekstrom, L. Visscher, R. Bast, A. J. Thorvaldsen and K. Ruud;
J.Chem.Theor.Comp. 2010, DOI: 10.1021/ct100117s
XCFun Version 0.99 

Warning: RI is on but no J-basis has been assigned. Assigning Def2/J (nothing to worry about!)
================================================================================

----- Orbital basis set information -----
Your calculation utilizes the basis: def2-TZVPP
   F. Weigend and R. Ahlrichs, Phys. Chem. Chem. Phys. 7, 3297 (2005).

----- AuxJ basis set information -----
Your calculation utilizes the auxiliary basis: def2/J
   F. Weigend, Phys. Chem. Chem. Phys. 8, 1057 (2006).

================================================================================
                                        WARNINGS
                       Please study these warnings very carefully!
================================================================================


================================================================================
                                       INPUT FILE
================================================================================
NAME = honokiol2-opt_EC.inp
|  1> ! wB97X-D3 def2-TZVPP TightSCF
|  2> 
|  3> %maxcore 5000
|  4> 
|  5> %pal
|  6> nprocs 25
|  7> end
|  8> 
|  9> * xyz 0 1
| 10> O           1.34496788859366      1.75069885466308      2.40702249806264
| 11>   O          -3.83901441510234     -1.86676660386118      2.30762702803128
| 12>   C           1.14529231719456      0.17371232006510      0.55408125001929
| 13>   C          -0.16734688639036     -0.35965793291767      1.00196576200930
| 14>   C          -2.52287178510106     -0.83927483282851      0.53794027948910
| 15>   C          -1.27811330505612     -0.34229238771154      0.15590777424053
| 16>   C           2.98970761448858      0.09862024405689     -1.05572603976977
| 17>   C           1.73942983793797     -0.32227449143218     -0.60910879024859
| 18>   C           1.83069626453014      1.16676267996399      1.28023978538953
| 19>   C          -0.32594039013145     -0.92181984485015      2.27203739045479
| 20>   C          -2.64405649317418     -1.39538106195035      1.81910099019806
| 21>   C          -3.71642438866418     -0.73675943135978     -0.39048358667443
| 22>   C           3.59912306043680     -0.48175107568266     -2.31815953429996
| 23>   C           3.65749240166735      1.05993218084205     -0.29888278519050
| 24>   C          -1.54659280160692     -1.44252516624940      2.67210999980160
| 25>   C           3.08602375583246      1.59055512516383      0.84794651006263
| 26>   C          -4.33827660899424     -2.06458544632927     -0.73696059872850
| 27>   C           2.83446842230420     -0.13166034107874     -3.56515845410646
| 28>   C          -5.62065119108987     -2.37689177193375     -0.56976564224834
| 29>   C           2.32963979688408     -1.00778810664010     -4.42588794303274
| 30>   H          -1.17811972732385      0.10364385858921     -0.82718084379526
| 31>   H           1.20878632100675     -1.08485132173382     -1.16876381029321
| 32>   H           0.51738799274063     -0.96171015627124      2.94959119457459
| 33>   H          -4.48043322545102     -0.08374173739684      0.04575202596461
| 34>   H          -3.38567488371266     -0.25225346225142     -1.31357046121940
| 35>   H           3.67393093022311     -1.57068459512642     -2.23769467511994
| 36>   H           4.62300800458562     -0.10447107007285     -2.41174397936231
| 37>   H           4.63667963911336      1.40562635649395     -0.61140985623122
| 38>   H          -1.66446050387317     -1.89477903300604      3.64868017472176
| 39>   H           3.59353235437962      2.35438565372748      1.42316789387475
| 40>   H          -3.66086338233750     -2.80870970085490     -1.14845052141067
| 41>   H           2.69423145714546      0.93148120350400     -3.74577160746817
| 42>   H           0.37785930424791      1.68522036589231      2.47946439455509
| 43>   H          -4.41705290211599     -2.12053730813499      1.57277257363767
| 44>   H          -6.00876310484904     -3.34949055013509     -0.84482442151664
| 45>   H          -6.33295355299319     -1.66139453807254     -0.17076048126205
| 46>   H           1.78961424192467     -0.68999797172210     -5.30928849507698
| 47>   H           2.44190240214838     -2.07705114319323     -4.27994368596348
| 48>   H          -5.08293850615530      2.56523437523358      4.45489581667578
| 49>   H          -3.98120718579020      1.01959303686254      5.95562888528330
| 50>   C          -4.65466002447609      1.68897518579692      3.96512830811190
| 51>   O          -2.45581761374000      1.30769875837994      4.60075685383618
| 52>   C          -2.45660134196339      1.95297973383560      3.41618088037013
| 53>   C          -3.78506846750133      0.84624943489178      4.89987084283297
| 54>   O          -3.71927391993103      2.13415654885396      2.96902383411807
| 55>   O          -1.48007640367243      2.32450247705526      2.84009061869126
| 56>   H          -5.43960548190863      1.11812323047032      3.47443723226301
| 57>   H          -3.84258466187964     -0.21896853734502      4.67452110614864
| 58> *
| 59> 
| 60>                          ****END OF INPUT****
================================================================================

                       ****************************
                       * Single Point Calculation *
                       ****************************

---------------------------------
CARTESIAN COORDINATES (ANGSTROEM)
---------------------------------
  O      1.344968    1.750699    2.407022
  O     -3.839014   -1.866767    2.307627
  C      1.145292    0.173712    0.554081
  C     -0.167347   -0.359658    1.001966
  C     -2.522872   -0.839275    0.537940
  C     -1.278113   -0.342292    0.155908
  C      2.989708    0.098620   -1.055726
  C      1.739430   -0.322274   -0.609109
  C      1.830696    1.166763    1.280240
  C     -0.325940   -0.921820    2.272037
  C     -2.644056   -1.395381    1.819101
  C     -3.716424   -0.736759   -0.390484
  C      3.599123   -0.481751   -2.318160
  C      3.657492    1.059932   -0.298883
  C     -1.546593   -1.442525    2.672110
  C      3.086024    1.590555    0.847947
  C     -4.338277   -2.064585   -0.736961
  C      2.834468   -0.131660   -3.565158
  C     -5.620651   -2.376892   -0.569766
  C      2.329640   -1.007788   -4.425888
  H     -1.178120    0.103644   -0.827181
  H      1.208786   -1.084851   -1.168764
  H      0.517388   -0.961710    2.949591
  H     -4.480433   -0.083742    0.045752
  H     -3.385675   -0.252253   -1.313570
  H      3.673931   -1.570685   -2.237695
  H      4.623008   -0.104471   -2.411744
  H      4.636680    1.405626   -0.611410
  H     -1.664461   -1.894779    3.648680
  H      3.593532    2.354386    1.423168
  H     -3.660863   -2.808710   -1.148451
  H      2.694231    0.931481   -3.745772
  H      0.377859    1.685220    2.479464
  H     -4.417053   -2.120537    1.572773
  H     -6.008763   -3.349491   -0.844824
  H     -6.332954   -1.661395   -0.170760
  H      1.789614   -0.689998   -5.309288
  H      2.441902   -2.077051   -4.279944
  H     -5.082939    2.565234    4.454896
  H     -3.981207    1.019593    5.955629
  C     -4.654660    1.688975    3.965128
  O     -2.455818    1.307699    4.600757
  C     -2.456601    1.952980    3.416181
  C     -3.785068    0.846249    4.899871
  O     -3.719274    2.134157    2.969024
  O     -1.480076    2.324502    2.840091
  H     -5.439605    1.118123    3.474437
  H     -3.842585   -0.218969    4.674521

----------------------------
CARTESIAN COORDINATES (A.U.)
----------------------------
  NO LB      ZA    FRAG     MASS         X           Y           Z
   0 O     8.0000    0    15.999    2.541621    3.308341    4.548613
   1 O     8.0000    0    15.999   -7.254686   -3.527678    4.360783
   2 C     6.0000    0    12.011    2.164289    0.328269    1.047062
   3 C     6.0000    0    12.011   -0.316240   -0.679655    1.893441
   4 C     6.0000    0    12.011   -4.767537   -1.586000    1.016560
   5 C     6.0000    0    12.011   -2.415284   -0.646839    0.294623
   6 C     6.0000    0    12.011    5.649729    0.186365   -1.995033
   7 C     6.0000    0    12.011    3.287046   -0.609011   -1.151049
   8 C     6.0000    0    12.011    3.459515    2.204862    2.419303
   9 C     6.0000    0    12.011   -0.615938   -1.741987    4.293528
  10 C     6.0000    0    12.011   -4.996543   -2.636888    3.437603
  11 C     6.0000    0    12.011   -7.023024   -1.392274   -0.737907
  12 C     6.0000    0    12.011    6.801357   -0.910378   -4.380687
  13 C     6.0000    0    12.011    6.911659    2.002982   -0.564807
  14 C     6.0000    0    12.011   -2.922637   -2.725978    5.049556
  15 C     6.0000    0    12.011    5.831740    3.005714    1.602387
  16 C     6.0000    0    12.011   -8.198155   -3.901501   -1.392654
  17 C     6.0000    0    12.011    5.356369   -0.248802   -6.737173
  18 C     6.0000    0    12.011  -10.621491   -4.491674   -1.076701
  19 C     6.0000    0    12.011    4.402381   -1.904444   -8.363716
  20 H     1.0000    0     1.008   -2.226324    0.195859   -1.563145
  21 H     1.0000    0     1.008    2.284275   -2.050072   -2.208644
  22 H     1.0000    0     1.008    0.977722   -1.817369    5.573920
  23 H     1.0000    0     1.008   -8.466792   -0.158249    0.086459
  24 H     1.0000    0     1.008   -6.397998   -0.476690   -2.482288
  25 H     1.0000    0     1.008    6.942723   -2.968164   -4.228630
  26 H     1.0000    0     1.008    8.736219   -0.197422   -4.557536
  27 H     1.0000    0     1.008    8.762055    2.656249   -1.155397
  28 H     1.0000    0     1.008   -3.145375   -3.580613    6.895006
  29 H     1.0000    0     1.008    6.790792    4.449144    2.689398
  30 H     1.0000    0     1.008   -6.918029   -5.307692   -2.170257
  31 H     1.0000    0     1.008    5.091360    1.760244   -7.078482
  32 H     1.0000    0     1.008    0.714051    3.184605    4.685509
  33 H     1.0000    0     1.008   -8.347020   -4.007235    2.972109
  34 H     1.0000    0     1.008  -11.354917   -6.329620   -1.596487
  35 H     1.0000    0     1.008  -11.967548   -3.139581   -0.322691
  36 H     1.0000    0     1.008    3.381881   -1.303907  -10.033101
  37 H     1.0000    0     1.008    4.614527   -3.925058   -8.087921
  38 H     1.0000    0     1.008   -9.605362    4.847590    8.418533
  39 H     1.0000    0     1.008   -7.523391    1.926752   11.254508
  40 C     6.0000    0    12.011   -8.796033    3.191701    7.493007
  41 O     8.0000    0    15.999   -4.640823    2.471193    8.694170
  42 C     6.0000    0    12.011   -4.642304    3.690597    6.455646
  43 C     6.0000    0    12.011   -7.152743    1.599180    9.259414
  44 O     8.0000    0    15.999   -7.028409    4.032971    5.610642
  45 O     8.0000    0    15.999   -2.796939    4.392673    5.366993
  46 H     1.0000    0     1.008  -10.279365    2.112947    6.565735
  47 H     1.0000    0     1.008   -7.261433   -0.413791    8.833565

--------------------------------
INTERNAL COORDINATES (ANGSTROEM)
--------------------------------
 O      0   0   0     0.000000000000     0.00000000     0.00000000
 O      1   0   0     6.322152191154     0.00000000     0.00000000
 C      1   2   0     2.441341461741    63.34588829     0.00000000
 C      3   1   2     1.485969731063    94.32076767     0.39825179
 C      2   1   3     2.433056092656    47.64207281   324.44143752
 C      5   2   1     1.393687217228   146.41937301    24.88765464
 C      3   1   2     2.449282776453   117.19762470   181.51833047
 C      7   3   1     1.392772007354    28.65831048   181.94500594
 C      1   2   3     1.358879241467    91.95874774   358.83918270
 C      4   3   1     1.397948445415   121.22450000   302.61269103
 C      2   1   3     1.374331275182    25.36205367   357.62141108
 C      5   2   1     1.515601563826    92.75849710   208.42835016
 C      7   3   1     1.517219951967   149.43839932   180.81758310
 C      7   3   1     1.393868312932    89.01168092     1.70621325
 C     10   4   3     1.386067976011   120.87812319   181.36052449
 C     14   7   3     1.386850588443   121.02879662   358.98134277
 C     12   5   2     1.506608253608   113.97304547   299.37929815
 C     13   7   3     1.504083290271   113.36653921    66.43957853
 C     17  12   5     1.330403684334   125.15829276   125.35357744
 C     18  13   7     1.327895724723   125.24689989   236.83367831
 H      6   5   2     1.084122263522   118.53063795   183.05150107
 H      8   7   3     1.084582733421   119.09209989   181.56427462
 H     10   4   3     1.082530902922   119.67522725     0.68739674
 H     12   5   2     1.095647352505   110.21571804    62.57349711
 H     12   5   2     1.093723295484   107.98824864   178.45488976
 H     13   7   3     1.094461977737   110.29606180   303.76187523
 H     13   7   3     1.095188855789   108.35120788   187.46831417
 H     14   7   3     1.084428549601   119.73323270   179.36400028
 H     15  10   4     1.082642905938   120.87494730   178.83125322
 H     16  14   7     1.082534846719   121.07694778   181.48540542
 H     17  12   5     1.087167669815   115.66439468   305.74334463
 H     18  13   7     1.087454578997   115.51939619    56.40046409
 H      1   2   3     0.972025861165    31.43902981   132.41469932
 H      2   1   3     0.968782293376   130.62137260   317.68924601
 H     19  17  12     1.082698745272   121.63279171   179.62668931
 H     19  17  12     1.085594797763   121.59598398     0.96738858
 H     20  18  13     1.083058034093   121.64557821   180.16492798
 H     20  18  13     1.085000488503   121.58026432   359.91303908
 H      2   1   3     5.079443185398    72.23604730   211.25803673
 H     39   2   1     2.419714609694    66.00430228   279.37161726
 C     39   2   1     1.091386658058     9.47610489     4.76113944
 O     40  39   2     2.060460258022    80.78933432    63.50121125
 C     42  40  39     1.348928607610   130.08319653   351.73919474
 C     40  39   2     1.087723974800    65.28626091    23.06728365
 O     43  42  40     1.351708733960   110.80348616   342.99917668
 O     43  42  40     1.193109422239   124.92479883   162.51551541
 H     41  39  45     1.087561059418   109.91797855   241.31592191
 H     44  40  39     1.090311856679   110.29130169   223.61632071

---------------------------
INTERNAL COORDINATES (A.U.)
---------------------------
 O      0   0   0     0.000000000000     0.00000000     0.00000000
 O      1   0   0    11.947136218251     0.00000000     0.00000000
 C      1   2   0     4.613466762078    63.34588829     0.00000000
 C      3   1   2     2.808075835006    94.32076767     0.39825179
 C      2   1   3     4.597809683589    47.64207281   324.44143752
 C      5   2   1     2.633687156908   146.41937301    24.88765464
 C      3   1   2     4.628473672026   117.19762470   181.51833047
 C      7   3   1     2.631957660891    28.65831048   181.94500594
 C      1   2   3     2.567909615444    91.95874774   358.83918270
 C      4   3   1     2.641739711176   121.22450000   302.61269103
 C      2   1   3     2.597109727376    25.36205367   357.62141108
 C      5   2   1     2.864071883774    92.75849710   208.42835016
 C      7   3   1     2.867130194140   149.43839932   180.81758310
 C      7   3   1     2.634029378192    89.01168092     1.70621325
 C     10   4   3     2.619288877660   120.87812319   181.36052449
 C     14   7   3     2.620767800824   121.02879662   358.98134277
 C     12   5   2     2.847076990425   113.97304547   299.37929815
 C     13   7   3     2.842305501219   113.36653921    66.43957853
 C     17  12   5     2.514098610951   125.15829276   125.35357744
 C     18  13   7     2.509359254132   125.24689989   236.83367831
 H      6   5   2     2.048694173743   118.53063795   183.05150107
 H      8   7   3     2.049564335746   119.09209989   181.56427462
 H     10   4   3     2.045686938028   119.67522725     0.68739674
 H     12   5   2     2.070473435591   110.21571804    62.57349711
 H     12   5   2     2.066837494755   107.98824864   178.45488976
 H     13   7   3     2.068233401914   110.29606180   303.76187523
 H     13   7   3     2.069607002364   108.35120788   187.46831417
 H     14   7   3     2.049272970552   119.73323270   179.36400028
 H     15  10   4     2.045898593055   120.87494730   178.83125322
 H     16  14   7     2.045694390724   121.07694778   181.48540542
 H     17  12   5     2.054449157604   115.66439468   305.74334463
 H     18  13   7     2.054991337383   115.51939619    56.40046409
 H      1   2   3     1.836862672692    31.43902981   132.41469932
 H      2   1   3     1.830733217873   130.62137260   317.68924601
 H     19  17  12     2.046004114104   121.63279171   179.62668931
 H     19  17  12     2.051476860181   121.59598398     0.96738858
 H     20  18  13     2.046683071578   121.64557821   180.16492798
 H     20  18  13     2.050353778441   121.58026432   359.91303908
 H      2   1   3     9.598756533215    72.23604730   211.25803673
 H     39   2   1     4.572597934570    66.00430228   279.37161726
 C     39   2   1     2.062421889945     9.47610489     4.76113944
 O     40  39   2     3.893705597490    80.78933432    63.50121125
 C     42  40  39     2.549105642594   130.08319653   351.73919474
 C     40  39   2     2.055500421672    65.28626091    23.06728365
 O     43  42  40     2.554359320014   110.80348616   342.99917668
 O     43  42  40     2.254650055832   124.92479883   162.51551541
 H     41  39  45     2.055192556217   109.91797855   241.31592191
 H     44  40  39     2.060390809691   110.29130169   223.61632071

---------------------
BASIS SET INFORMATION
---------------------
There are 3 groups of distinct atoms

 Group   1 Type O   : 11s6p2d1f contracted to 5s3p2d1f pattern {62111/411/11/1}
 Group   2 Type C   : 11s6p2d1f contracted to 5s3p2d1f pattern {62111/411/11/1}
 Group   3 Type H   : 5s2p1d contracted to 3s2p1d pattern {311/11/1}

Atom   0O    basis set group =>   1
Atom   1O    basis set group =>   1
Atom   2C    basis set group =>   2
Atom   3C    basis set group =>   2
Atom   4C    basis set group =>   2
Atom   5C    basis set group =>   2
Atom   6C    basis set group =>   2
Atom   7C    basis set group =>   2
Atom   8C    basis set group =>   2
Atom   9C    basis set group =>   2
Atom  10C    basis set group =>   2
Atom  11C    basis set group =>   2
Atom  12C    basis set group =>   2
Atom  13C    basis set group =>   2
Atom  14C    basis set group =>   2
Atom  15C    basis set group =>   2
Atom  16C    basis set group =>   2
Atom  17C    basis set group =>   2
Atom  18C    basis set group =>   2
Atom  19C    basis set group =>   2
Atom  20H    basis set group =>   3
Atom  21H    basis set group =>   3
Atom  22H    basis set group =>   3
Atom  23H    basis set group =>   3
Atom  24H    basis set group =>   3
Atom  25H    basis set group =>   3
Atom  26H    basis set group =>   3
Atom  27H    basis set group =>   3
Atom  28H    basis set group =>   3
Atom  29H    basis set group =>   3
Atom  30H    basis set group =>   3
Atom  31H    basis set group =>   3
Atom  32H    basis set group =>   3
Atom  33H    basis set group =>   3
Atom  34H    basis set group =>   3
Atom  35H    basis set group =>   3
Atom  36H    basis set group =>   3
Atom  37H    basis set group =>   3
Atom  38H    basis set group =>   3
Atom  39H    basis set group =>   3
Atom  40C    basis set group =>   2
Atom  41O    basis set group =>   1
Atom  42C    basis set group =>   2
Atom  43C    basis set group =>   2
Atom  44O    basis set group =>   1
Atom  45O    basis set group =>   1
Atom  46H    basis set group =>   3
Atom  47H    basis set group =>   3
---------------------------------
AUXILIARY/J BASIS SET INFORMATION
---------------------------------
There are 3 groups of distinct atoms

 Group   1 Type O   : 12s5p4d2f1g contracted to 6s4p3d1f1g pattern {711111/2111/211/2/1}
 Group   2 Type C   : 12s5p4d2f1g contracted to 6s4p3d1f1g pattern {711111/2111/211/2/1}
 Group   3 Type H   : 5s2p1d contracted to 3s1p1d pattern {311/2/1}

Atom   0O    basis set group =>   1
Atom   1O    basis set group =>   1
Atom   2C    basis set group =>   2
Atom   3C    basis set group =>   2
Atom   4C    basis set group =>   2
Atom   5C    basis set group =>   2
Atom   6C    basis set group =>   2
Atom   7C    basis set group =>   2
Atom   8C    basis set group =>   2
Atom   9C    basis set group =>   2
Atom  10C    basis set group =>   2
Atom  11C    basis set group =>   2
Atom  12C    basis set group =>   2
Atom  13C    basis set group =>   2
Atom  14C    basis set group =>   2
Atom  15C    basis set group =>   2
Atom  16C    basis set group =>   2
Atom  17C    basis set group =>   2
Atom  18C    basis set group =>   2
Atom  19C    basis set group =>   2
Atom  20H    basis set group =>   3
Atom  21H    basis set group =>   3
Atom  22H    basis set group =>   3
Atom  23H    basis set group =>   3
Atom  24H    basis set group =>   3
Atom  25H    basis set group =>   3
Atom  26H    basis set group =>   3
Atom  27H    basis set group =>   3
Atom  28H    basis set group =>   3
Atom  29H    basis set group =>   3
Atom  30H    basis set group =>   3
Atom  31H    basis set group =>   3
Atom  32H    basis set group =>   3
Atom  33H    basis set group =>   3
Atom  34H    basis set group =>   3
Atom  35H    basis set group =>   3
Atom  36H    basis set group =>   3
Atom  37H    basis set group =>   3
Atom  38H    basis set group =>   3
Atom  39H    basis set group =>   3
Atom  40C    basis set group =>   2
Atom  41O    basis set group =>   1
Atom  42C    basis set group =>   2
Atom  43C    basis set group =>   2
Atom  44O    basis set group =>   1
Atom  45O    basis set group =>   1
Atom  46H    basis set group =>   3
Atom  47H    basis set group =>   3
--------------------------------------------------------------------------
WARNING: There was an error initializing an OpenFabrics device.

  Local host:   ga01
  Local device: mlx5_0
--------------------------------------------------------------------------


           ************************************************************
           *        Program running with 25 parallel MPI-processes    *
           *              working on a common directory               *
           ************************************************************
------------------------------------------------------------------------------
                             ORCA STARTUP CALCULATIONS
                           -- RI-GTO INTEGRALS CHOSEN --
------------------------------------------------------------------------------
------------------------------------------------------------------------------
                   ___                                                        
                  /   \      - P O W E R E D   B Y -                         
                 /     \                                                     
                 |  |  |   _    _      __       _____    __    __             
                 |  |  |  | |  | |    /  \     |  _  \  |  |  /  |          
                  \  \/   | |  | |   /    \    | | | |  |  | /  /          
                 / \  \   | |__| |  /  /\  \   | |_| |  |  |/  /          
                |  |  |   |  __  | /  /__\  \  |    /   |      \           
                |  |  |   | |  | | |   __   |  |    \   |  |\   \          
                \     /   | |  | | |  |  |  |  | |\  \  |  | \   \       
                 \___/    |_|  |_| |__|  |__|  |_| \__\ |__|  \__/        
                                                                              
                      - O R C A' S   B I G   F R I E N D -                    
                                      &                                       
                       - I N T E G R A L  F E E D E R -                       
                                                                              
 v1 FN, 2020, v2 2021, v3 2022-2024                                           
------------------------------------------------------------------------------


----------------------
SHARK INTEGRAL PACKAGE
----------------------

Number of atoms                             ...     48
Number of basis functions                   ...   1114
Number of shells                            ...    418
Maximum angular momentum                    ...      3
Integral batch strategy                     ... SHARK/LIBINT Hybrid
RI-J (if used) integral strategy            ... SPLIT-RIJ (Revised 2003 algorithm where possible)
Printlevel                                  ...      1
Contraction scheme used                     ... SEGMENTED contraction
Prescreening option                         ... SCHWARTZ
   Thresh                                   ... 2.500e-11
   Tcut                                     ... 2.500e-12
   Tpresel                                  ... 2.500e-12 
Coulomb Range Separation                    ... NOT USED
Exchange Range Separation                   ... Long Range
   Mu parameter                             ... 2.500e-01
   Scaling (regular/separated)              ... 1.957e-01 8.043e-01
Multipole approximations                    ... NOT USED
Finite Nucleus Model                        ... NOT USED
CABS basis                                  ... NOT available
Auxiliary Coulomb fitting basis             ... AVAILABLE
   # of basis functions in Aux-J            ...   1516
   # of shells in Aux-J                     ...    500
   Maximum angular momentum in Aux-J        ...      4
Auxiliary J/K fitting basis                 ... NOT available
Auxiliary Correlation fitting basis         ... NOT available
Auxiliary 'external' fitting basis          ... NOT available

Checking pre-screening integrals            ... done (  0.0 sec) Dimension = 418
Check shell pair data                       ... done (  0.0 sec)
Shell pair information
Shell pair cut-off parameter TPreSel        ...   2.5e-12
Total number of shell pairs                 ...     87571
Shell pairs after pre-screening             ...     52615
Total number of primitive shell pairs       ...    243194
Primitive shell pairs kept                  ...     98409
          la=0 lb=0:  11765 shell pairs
          la=1 lb=0:  15204 shell pairs
          la=1 lb=1:   5003 shell pairs
          la=2 lb=0:   8056 shell pairs
          la=2 lb=1:   5326 shell pairs
          la=2 lb=2:   1380 shell pairs
          la=3 lb=0:   2839 shell pairs
          la=3 lb=1:   1901 shell pairs
          la=3 lb=2:    952 shell pairs
          la=3 lb=3:    189 shell pairs

Calculating one electron integrals          ... done (  0.1 sec)
Calculating RI/J V-Matrix + Cholesky decomp.... done (  0.1 sec)
Calculating Nuclear repulsion               ... done (  0.0 sec) ENN=   2277.631554047680 Eh

Diagonalization of the overlap matrix:
Smallest eigenvalue                        ... 5.679e-06
Time for diagonalization                   ...    0.216 sec
Threshold for overlap eigenvalues          ... 1.000e-07
Number of eigenvalues below threshold      ... 0
Time for construction of square roots      ...    0.103 sec
Total time needed                          ...    0.331 sec

-------------------
DFT GRID GENERATION
-------------------

General Integration Accuracy     IntAcc      ... 4.388
Radial Grid Type                 RadialGrid  ... OptM3 with GC (2021)
Angular Grid (max. ang.)         AngularGrid ... 4 (Lebedev-302)
Angular grid pruning method      GridPruning ... 4 (adaptive)
Weight generation scheme         WeightScheme... mBecke (2022)
Basis function cutoff            BFCut       ... 1.0000e-11
Integration weight cutoff        WCut        ... 1.0000e-14
Partially contracted basis set               ... off
Rotationally invariant grid construction     ... off
Angular grids for H and He will be reduced by one unit

Total number of grid points                  ...   225575
Total number of batches                      ...     3550
Average number of points per batch           ...       63
Average number of grid points per atom       ...     4699

--------------------
COSX GRID GENERATION
--------------------

GRIDX 1
-------
General Integration Accuracy     IntAcc      ... 3.816
Radial Grid Type                 RadialGrid  ... OptM3 with GC (2021)
Angular Grid (max. ang.)         AngularGrid ... 1 (Lebedev-50)
Angular grid pruning method      GridPruning ... 4 (adaptive)
Weight generation scheme         WeightScheme... mBecke (2022)
Basis function cutoff            BFCut       ... 1.0000e-11
Integration weight cutoff        WCut        ... 1.0000e-14
Partially contracted basis set               ... on
Rotationally invariant grid construction     ... off
Angular grids for H and He will be reduced by one unit

Total number of grid points                  ...    28592
Total number of batches                      ...      254
Average number of points per batch           ...      112
Average number of grid points per atom       ...      596
UseSFitting                                  ... on

GRIDX 2
-------
General Integration Accuracy     IntAcc      ... 4.020
Radial Grid Type                 RadialGrid  ... OptM3 with GC (2021)
Angular Grid (max. ang.)         AngularGrid ... 2 (Lebedev-110)
Angular grid pruning method      GridPruning ... 4 (adaptive)
Weight generation scheme         WeightScheme... mBecke (2022)
Basis function cutoff            BFCut       ... 1.0000e-11
Integration weight cutoff        WCut        ... 1.0000e-14
Partially contracted basis set               ... on
Rotationally invariant grid construction     ... off
Angular grids for H and He will be reduced by one unit

Total number of grid points                  ...    61756
Total number of batches                      ...      511
Average number of points per batch           ...      120
Average number of grid points per atom       ...     1287
UseSFitting                                  ... on

GRIDX 3
-------
General Integration Accuracy     IntAcc      ... 4.338
Radial Grid Type                 RadialGrid  ... OptM3 with GC (2021)
Angular Grid (max. ang.)         AngularGrid ... 3 (Lebedev-194)
Angular grid pruning method      GridPruning ... 4 (adaptive)
Weight generation scheme         WeightScheme... mBecke (2022)
Basis function cutoff            BFCut       ... 1.0000e-11
Integration weight cutoff        WCut        ... 1.0000e-14
Partially contracted basis set               ... on
Rotationally invariant grid construction     ... off
Angular grids for H and He will be reduced by one unit

Total number of grid points                  ...   134836
Total number of batches                      ...     1079
Average number of points per batch           ...      124
Average number of grid points per atom       ...     2809
UseSFitting                                  ... on
Initializing property integral containers    ... done (  0.0 sec)

SHARK setup successfully completed in   3.8 seconds

Maximum memory used throughout the entire STARTUP-calculation: 111.5 MB
[ga01:887406] 24 more processes have sent help message help-mpi-btl-openib.txt / error in device init
[ga01:887406] Set MCA parameter "orte_base_help_aggregate" to 0 to see all help / error messages
--------------------------------------------------------------------------
WARNING: There was an error initializing an OpenFabrics device.

  Local host:   ga01
  Local device: mlx5_0
--------------------------------------------------------------------------


           ************************************************************
           *        Program running with 25 parallel MPI-processes    *
           *              working on a common directory               *
           ************************************************************
-------------------------------------------------------------------------------
                                 ORCA GUESS
                   Start orbitals & Density for SCF / CASSCF
-------------------------------------------------------------------------------

------------
SCF SETTINGS
------------
Hamiltonian:
 Density Functional     Method          .... DFT(GTOs)
 Exchange Functional    Exchange        .... WB97X-D3
 Correlation Functional Correlation     .... WB97X-D3
 Gradients option       PostSCFGGA      .... off
 Hybrid DFT is turned on
   Fraction HF Exchange ScalHFX         ....  0.195728
   Scaling of DF-GGA-X  ScalDFX         ....  0.000000
   Scaling of DF-GGA-C  ScalDFC         ....  1.000000
   Scaling of DF-LDA-C  ScalLDAC        ....  1.000000
   Perturbative correction              ....  0.000000
 Long-range corrected/Screened/Range-Separated Hybrid DFT is turned on
   Amount of maximum screened exact exchange              ....  0.804272
   Range separation parameter mu (erf(mu*r12)/r12)        ....  0.250000
 RI-approximation to the Coulomb term is turned on
   Number of AuxJ basis functions       .... 1516
   RIJ-COSX (HFX calculated with COS-X)).... on


General Settings:
 Integral files         IntName         .... honokiol2-opt_EC
 Hartree-Fock type      HFTyp           .... RHF
 Total Charge           Charge          ....    0
 Multiplicity           Mult            ....    1
 Number of Electrons    NEL             ....  188
 Basis Dimension        Dim             .... 1114
 Nuclear Repulsion      ENuc            ....   2277.6315540477 Eh

Convergence Acceleration:
 AO-DIIS                CNVDIIS         .... on
   Start iteration      DIISMaxIt       ....    12
   Startup error        DIISStart       ....  0.200000
   # of expansion vecs  DIISMaxEq       ....     5
   Bias factor          DIISBfac        ....   1.050
   Max. coefficient     DIISMaxC        ....  10.000
 MO-DIIS                CNVKDIIS        .... off
 Trust-Rad. Augm. Hess. CNVTRAH         .... auto
   Auto Start mean grad. ratio tolernc. ....  1.125000
   Auto Start start iteration           ....    50
   Auto Start num. interpolation iter.  ....    10
   Max. Number of Micro iterations      ....    24
   Max. Number of Macro iterations      .... Maxiter - #DIIS iter
   Number of Davidson start vectors     ....     2
   Converg. threshold    (grad. norm)   ....   1.000e-05
   Grad. Scal. Fac. for Micro threshold ....   0.100
   Minimum threshold for Micro iter.    ....   1.000e-02
   NR start threshold (gradient norm)   ....   1.000e-04
   Initial trust radius                 ....   0.400
   Minimum AH scaling param. (alpha)    ....   1.000
   Maximum AH scaling param. (alpha)    .... 1000.000
   Quad. conv. algorithm                .... NR
   White noise on init. David. guess    .... on
   Maximum white noise                  ....   0.010
   Pseudo random numbers                .... off
   Inactive MOs                         .... canonical
   Orbital update algorithm             .... Taylor
   Preconditioner                       .... Diag
   Full preconditioner red. dimension   ....   250
 SOSCF                  CNVSOSCF        .... on
   Start iteration      SOSCFMaxIt      ....   150
   Startup grad/error   SOSCFStart      ....  0.003300
   Hessian update       SOSCFHessUp     .... L-BFGS
 Level Shifting         CNVShift        .... on
   Level shift para.    LevelShift      ....    0.2500
   Turn off err/grad.   ShiftErr        ....    0.0010
 Zerner damping         CNVZerner       .... off
 Static damping         CNVDamp         .... on
   Fraction old density DampFac         ....    0.7000
   Max. Damping (<1)    DampMax         ....    0.9800
   Min. Damping (>=0)   DampMin         ....    0.0000
   Turn off err/grad.   DampErr         ....    0.1000

SCF Procedure:
 Maximum # iterations   MaxIter         ....   125
 SCF integral mode      SCFMode         .... Direct
   Integral package                     .... SHARK and LIBINT hybrid scheme
 Reset frequency        DirectResetFreq ....    20
 Integral Threshold     Thresh          ....  2.500e-11 Eh
 Primitive CutOff       TCut            ....  2.500e-12 Eh

Convergence Tolerance:
 Convergence Check Mode ConvCheckMode   .... Total+1el-Energy
 Convergence forced     ConvForced      .... 0
 Energy Change          TolE            ....  1.000e-08 Eh
 1-El. energy change                    ....  1.000e-05 Eh
 Orbital Gradient       TolG            ....  1.000e-05
 Orbital Rotation angle TolX            ....  1.000e-05
 DIIS Error             TolErr          ....  5.000e-07

------------------------------
INITIAL GUESS: MODEL POTENTIAL
------------------------------
Loading Hartree-Fock densities                     ... done
Calculating cut-offs                               ... done
Initializing the effective Hamiltonian             ... done
Setting up the integral package (SHARK)            ... done
Starting the Coulomb interaction                   ... done (   0.2 sec)
Making the grid                                    ... done (   0.3 sec)
Mapping shells                                     ... done
Starting the XC term evaluation                    ... done (   0.1 sec)
  promolecular density results
     # of electrons  =    188.004487309
     EX              =   -154.708123501
     EC              =     -6.291174213
     EX+EC           =   -160.999297714
Transforming the Hamiltonian                       ... done (   0.1 sec)
Diagonalizing the Hamiltonian                      ... done (   0.2 sec)
Back transforming the eigenvectors                 ... done (   0.1 sec)
Now organizing SCF variables                       ... done
                      ------------------
                      INITIAL GUESS DONE (   1.1 sec)
                      ------------------
             **** ENERGY FILE WAS UPDATED (honokiol2-opt_EC.en.tmp) ****
Finished Guess after   2.1 sec
Maximum memory used throughout the entire GUESS-calculation: 97.3 MB
[ga01:887521] 24 more processes have sent help message help-mpi-btl-openib.txt / error in device init
[ga01:887521] Set MCA parameter "orte_base_help_aggregate" to 0 to see all help / error messages
--------------------------------------------------------------------------
WARNING: There was an error initializing an OpenFabrics device.

  Local host:   ga01
  Local device: mlx5_0
--------------------------------------------------------------------------


           ************************************************************
           *        Program running with 25 parallel MPI-processes    *
           *              working on a common directory               *
           ************************************************************

-------------------------------------------------------------------------------------------
                                      ORCA LEAN-SCF
                              memory conserving SCF solver
-------------------------------------------------------------------------------------------

----------------------------------------D-I-I-S--------------------------------------------
Iteration    Energy (Eh)           Delta-E    RMSDP     MaxDP     DIISErr   Damp  Time(sec)
-------------------------------------------------------------------------------------------
               ***  Starting incremental Fock matrix formation  ***
[ga01:887628] 24 more processes have sent help message help-mpi-btl-openib.txt / error in device init
[ga01:887628] Set MCA parameter "orte_base_help_aggregate" to 0 to see all help / error messages
    1    -1189.0732088623935852     0.00e+00  6.67e-04  5.92e-02  2.67e-01  0.700   9.7
    2    -1189.3234868077474857    -2.50e-01  5.89e-04  7.63e-02  1.24e-01  0.700   5.4
                               ***Turning on AO-DIIS***
    3    -1189.4509972326272873    -1.28e-01  3.27e-04  3.88e-02  5.36e-02  0.700   5.0
    4    -1189.5275996610585025    -7.66e-02  7.48e-04  8.32e-02  3.64e-02  0.000   4.8
    5    -1189.6932117317041957    -1.66e-01  9.46e-05  6.61e-03  8.23e-03  0.000   5.5
    6    -1189.6936140571860960    -4.02e-04  3.62e-05  2.93e-03  5.13e-03  0.000   4.5
                              *** Initializing SOSCF ***
---------------------------------------S-O-S-C-F--------------------------------------
Iteration    Energy (Eh)           Delta-E    RMSDP     MaxDP     MaxGrad    Time(sec)
--------------------------------------------------------------------------------------
    7    -1189.6936991482848498    -8.51e-05  2.31e-05  2.44e-03  7.55e-04     4.9
               *** Restarting incremental Fock matrix formation ***
    8    -1189.6937261848775051    -2.70e-05  5.29e-05  3.50e-03  2.88e-04     9.4
    9    -1189.6937304601678989    -4.28e-06  2.85e-05  1.82e-03  2.97e-04     7.0
   10    -1189.6937318899467755    -1.43e-06  2.21e-05  1.48e-03  1.20e-04     6.6
   11    -1189.6937321674918167    -2.78e-07  5.26e-06  3.66e-04  1.73e-05     6.4
   12    -1189.6937321993209480    -3.18e-08  3.18e-06  2.28e-04  9.22e-06     5.7
   13    -1189.6937321862569661     1.31e-08  1.40e-06  1.21e-04  2.59e-06     5.2
   14    -1189.6937321905520548    -4.30e-09  1.18e-06  1.63e-04  1.86e-06     4.2
                 **** Energy Check signals convergence ****

               *****************************************************
               *                     SUCCESS                       *
               *           SCF CONVERGED AFTER  14 CYCLES          *
               *****************************************************

Recomputing exchange energy using gridx3       ... done (   16.364 sec)
Old exchange energy                            :    -51.081454507 Eh
New exchange energy                            :    -51.081462179 Eh
Exchange energy change after final integration :     -0.000007672 Eh
Total energy after final integration           :  -1189.693739863 Eh
             **** ENERGY FILE WAS UPDATED (honokiol2-opt_EC.en.tmp) ****

----------------
TOTAL SCF ENERGY
----------------

Total Energy       :      -1189.69373986289861 Eh          -32373.21248 eV

Components:
Nuclear Repulsion  :       2277.63155404767986 Eh           61977.50546 eV
Electronic Energy  :      -3467.32528623823191 Eh          -94350.71774 eV
One Electron Energy:      -6146.76845081200463 Eh         -167262.07299 eV
Two Electron Energy:       2679.44316457377272 Eh           72911.35525 eV

Virial components:
Potential Energy   :      -2373.87411797913046 Eh          -64596.39877 eV
Kinetic Energy     :       1184.18037811623185 Eh           32223.18628 eV
Virial Ratio       :          2.00465584622795

DFT components:
N(Alpha)           :       94.000124887663 electrons
N(Beta)            :       94.000124887663 electrons
N(Total)           :      188.000249775326 electrons
E(XC)              :     -113.974644062156 Eh       

---------------
SCF CONVERGENCE
---------------

  Last Energy change         ...    4.2951e-09  Tolerance :   1.0000e-08
  Last MAX-Density change    ...    1.6269e-04  Tolerance :   1.0000e-07
  Last RMS-Density change    ...    1.1820e-06  Tolerance :   5.0000e-09
  Last DIIS Error            ...    7.5525e-04  Tolerance :   5.0000e-07
  Last Orbital Gradient      ...    1.8557e-06  Tolerance :   1.0000e-05
  Last Orbital Rotation      ...    6.4452e-06  Tolerance :   1.0000e-05


----------------
ORBITAL ENERGIES
----------------

  NO   OCC          E(Eh)            E(eV) 
   0   2.0000     -19.302860      -525.2575 
   1   2.0000     -19.302139      -525.2379 
   2   2.0000     -19.261912      -524.1433 
   3   2.0000     -19.230536      -523.2895 
   4   2.0000     -19.229222      -523.2537 
   5   2.0000     -10.465469      -284.7799 
   6   2.0000     -10.369341      -282.1641 
   7   2.0000     -10.366938      -282.0987 
   8   2.0000     -10.342291      -281.4280 
   9   2.0000     -10.325217      -280.9634 
  10   2.0000     -10.305253      -280.4202 
  11   2.0000     -10.299300      -280.2582 
  12   2.0000     -10.292950      -280.0854 
  13   2.0000     -10.291428      -280.0440 
  14   2.0000     -10.284470      -279.8546 
  15   2.0000     -10.281482      -279.7733 
  16   2.0000     -10.279756      -279.7264 
  17   2.0000     -10.276714      -279.6436 
  18   2.0000     -10.276707      -279.6434 
  19   2.0000     -10.276145      -279.6281 
  20   2.0000     -10.274674      -279.5881 
  21   2.0000     -10.270955      -279.4869 
  22   2.0000     -10.267473      -279.3921 
  23   2.0000     -10.267135      -279.3830 
  24   2.0000     -10.261973      -279.2425 
  25   2.0000     -10.259029      -279.1624 
  26   2.0000      -1.290932       -35.1280 
  27   2.0000      -1.176630       -32.0177 
  28   2.0000      -1.175500       -31.9870 
  29   2.0000      -1.169828       -31.8326 
  30   2.0000      -1.148125       -31.2421 
  31   2.0000      -0.985369       -26.8133 
  32   2.0000      -0.963990       -26.2315 
  33   2.0000      -0.937973       -25.5235 
  34   2.0000      -0.912092       -24.8193 
  35   2.0000      -0.910167       -24.7669 
  36   2.0000      -0.885940       -24.1077 
  37   2.0000      -0.876694       -23.8561 
  38   2.0000      -0.849555       -23.1176 
  39   2.0000      -0.830671       -22.6037 
  40   2.0000      -0.806543       -21.9472 
  41   2.0000      -0.803775       -21.8718 
  42   2.0000      -0.780958       -21.2510 
  43   2.0000      -0.736567       -20.0430 
  44   2.0000      -0.728075       -19.8119 
  45   2.0000      -0.724880       -19.7250 
  46   2.0000      -0.697223       -18.9724 
  47   2.0000      -0.689002       -18.7487 
  48   2.0000      -0.681277       -18.5385 
  49   2.0000      -0.663541       -18.0559 
  50   2.0000      -0.656191       -17.8559 
  51   2.0000      -0.648367       -17.6430 
  52   2.0000      -0.641232       -17.4488 
  53   2.0000      -0.631015       -17.1708 
  54   2.0000      -0.620209       -16.8767 
  55   2.0000      -0.597714       -16.2646 
  56   2.0000      -0.588435       -16.0121 
  57   2.0000      -0.579932       -15.7808 
  58   2.0000      -0.571392       -15.5484 
  59   2.0000      -0.561505       -15.2793 
  60   2.0000      -0.558872       -15.2077 
  61   2.0000      -0.554963       -15.1013 
  62   2.0000      -0.554085       -15.0774 
  63   2.0000      -0.552208       -15.0263 
  64   2.0000      -0.539279       -14.6745 
  65   2.0000      -0.528168       -14.3722 
  66   2.0000      -0.523752       -14.2520 
  67   2.0000      -0.518220       -14.1015 
  68   2.0000      -0.513608       -13.9760 
  69   2.0000      -0.511225       -13.9111 
  70   2.0000      -0.498730       -13.5711 
  71   2.0000      -0.494909       -13.4672 
  72   2.0000      -0.491242       -13.3674 
  73   2.0000      -0.489844       -13.3293 
  74   2.0000      -0.488153       -13.2833 
  75   2.0000      -0.478417       -13.0184 
  76   2.0000      -0.466388       -12.6911 
  77   2.0000      -0.460086       -12.5196 
  78   2.0000      -0.451008       -12.2726 
  79   2.0000      -0.446138       -12.1400 
  80   2.0000      -0.442469       -12.0402 
  81   2.0000      -0.434477       -11.8227 
  82   2.0000      -0.426835       -11.6148 
  83   2.0000      -0.421209       -11.4617 
  84   2.0000      -0.419514       -11.4156 
  85   2.0000      -0.416416       -11.3312 
  86   2.0000      -0.411273       -11.1913 
  87   2.0000      -0.400601       -10.9009 
  88   2.0000      -0.376377       -10.2417 
  89   2.0000      -0.349563        -9.5121 
  90   2.0000      -0.338884        -9.2215 
  91   2.0000      -0.337702        -9.1893 
  92   2.0000      -0.305545        -8.3143 
  93   2.0000      -0.282726        -7.6934 
  94   0.0000       0.049540         1.3481 
  95   0.0000       0.054366         1.4794 
  96   0.0000       0.073618         2.0032 
  97   0.0000       0.082616         2.2481 
  98   0.0000       0.087119         2.3706 
  99   0.0000       0.092594         2.5196 
 100   0.0000       0.105962         2.8834 
 101   0.0000       0.110856         3.0166 
 102   0.0000       0.115065         3.1311 
 103   0.0000       0.124062         3.3759 
 104   0.0000       0.132543         3.6067 
*Only the first 10 virtual orbitals were printed.

                    ********************************
                    * MULLIKEN POPULATION ANALYSIS *
                    ********************************

-----------------------
MULLIKEN ATOMIC CHARGES
-----------------------
   0 O :   -0.345243
   1 O :   -0.353753
   2 C :    0.061333
   3 C :   -0.019021
   4 C :   -0.039105
   5 C :   -0.072461
   6 C :   -0.032608
   7 C :   -0.170815
   8 C :    0.188178
   9 C :   -0.130558
  10 C :    0.192289
  11 C :   -0.128321
  12 C :   -0.092728
  13 C :   -0.080790
  14 C :   -0.218034
  15 C :   -0.185084
  16 C :   -0.139313
  17 C :   -0.126057
  18 C :   -0.253197
  19 C :   -0.227002
  20 H :    0.109665
  21 H :    0.110099
  22 H :    0.132158
  23 H :    0.107680
  24 H :    0.086628
  25 H :    0.087998
  26 H :    0.080389
  27 H :    0.101148
  28 H :    0.118615
  29 H :    0.114614
  30 H :    0.125470
  31 H :    0.110670
  32 H :    0.242427
  33 H :    0.219608
  34 H :    0.113591
  35 H :    0.102486
  36 H :    0.099635
  37 H :    0.079033
  38 H :    0.101868
  39 H :    0.108022
  40 C :    0.019479
  41 O :   -0.247561
  42 C :    0.457337
  43 C :    0.003229
  44 O :   -0.256009
  45 O :   -0.346999
  46 H :    0.093660
  47 H :    0.097352
Sum of atomic charges:   -0.0000000

--------------------------------
MULLIKEN REDUCED ORBITAL CHARGES
--------------------------------
  0 O s       :     3.761338  s :     3.761338
      pz      :     1.492706  p :     4.555249
      px      :     1.330344
      py      :     1.732200
      dz2     :     0.008757  d :     0.027383
      dxz     :     0.004264
      dyz     :     0.007029
      dx2y2   :     0.004989
      dxy     :     0.002344
      f0      :     0.000195  f :     0.001272
      f+1     :     0.000194
      f-1     :     0.000306
      f+2     :     0.000190
      f-2     :     0.000222
      f+3     :     0.000101
      f-3     :     0.000064

  1 O s       :     3.766830  s :     3.766830
      pz      :     1.518689  p :     4.558782
      px      :     1.305284
      py      :     1.734810
      dz2     :     0.004668  d :     0.026946
      dxz     :     0.010020
      dyz     :     0.003305
      dx2y2   :     0.004405
      dxy     :     0.004548
      f0      :     0.000037  f :     0.001195
      f+1     :     0.000104
      f-1     :     0.000027
      f+2     :     0.000195
      f-2     :     0.000175
      f+3     :     0.000295
      f-3     :     0.000361

  2 C s       :     3.277405  s :     3.277405
      pz      :     0.894712  p :     2.530193
      px      :     0.713307
      py      :     0.922174
      dz2     :     0.025606  d :     0.121465
      dxz     :     0.030388
      dyz     :     0.018184
      dx2y2   :     0.022517
      dxy     :     0.024770
      f0      :     0.001373  f :     0.009604
      f+1     :     0.001297
      f-1     :     0.001362
      f+2     :     0.001708
      f-2     :     0.001428
      f+3     :     0.001182
      f-3     :     0.001254

  3 C s       :     3.318858  s :     3.318858
      pz      :     0.891910  p :     2.548319
      px      :     0.723665
      py      :     0.932745
      dz2     :     0.033068  d :     0.141998
      dxz     :     0.039213
      dyz     :     0.022279
      dx2y2   :     0.023111
      dxy     :     0.024327
      f0      :     0.001552  f :     0.009846
      f+1     :     0.002269
      f-1     :     0.000819
      f+2     :     0.001228
      f-2     :     0.001661
      f+3     :     0.001148
      f-3     :     0.001168

  4 C s       :     3.229947  s :     3.229947
      pz      :     0.841125  p :     2.663556
      px      :     0.835625
      py      :     0.986807
      dz2     :     0.037375  d :     0.135993
      dxz     :     0.032410
      dyz     :     0.020372
      dx2y2   :     0.023410
      dxy     :     0.022426
      f0      :     0.001557  f :     0.009609
      f+1     :     0.002020
      f-1     :     0.000891
      f+2     :     0.001454
      f-2     :     0.001321
      f+3     :     0.001368
      f-3     :     0.000999

  5 C s       :     3.060968  s :     3.060968
      pz      :     1.015258  p :     2.896736
      px      :     0.906506
      py      :     0.974971
      dz2     :     0.025652  d :     0.106990
      dxz     :     0.026035
      dyz     :     0.012707
      dx2y2   :     0.018899
      dxy     :     0.023697
      f0      :     0.000651  f :     0.007767
      f+1     :     0.001681
      f-1     :     0.000520
      f+2     :     0.000939
      f-2     :     0.001311
      f+3     :     0.001502
      f-3     :     0.001164

  6 C s       :     3.218474  s :     3.218474
      pz      :     0.849172  p :     2.656254
      px      :     0.899199
      py      :     0.907883
      dz2     :     0.030451  d :     0.148182
      dxz     :     0.036485
      dyz     :     0.023250
      dx2y2   :     0.032977
      dxy     :     0.025019
      f0      :     0.001065  f :     0.009698
      f+1     :     0.001552
      f-1     :     0.001476
      f+2     :     0.001772
      f-2     :     0.001303
      f+3     :     0.001339
      f-3     :     0.001192

  7 C s       :     3.104656  s :     3.104656
      pz      :     0.969193  p :     2.950632
      px      :     0.961176
      py      :     1.020262
      dz2     :     0.022254  d :     0.107765
      dxz     :     0.029614
      dyz     :     0.017922
      dx2y2   :     0.016231
      dxy     :     0.021744
      f0      :     0.001327  f :     0.007762
      f+1     :     0.001292
      f-1     :     0.000692
      f+2     :     0.001433
      f-2     :     0.001143
      f+3     :     0.001146
      f-3     :     0.000728

  8 C s       :     3.058414  s :     3.058414
      pz      :     0.762902  p :     2.554902
      px      :     0.921681
      py      :     0.870319
      dz2     :     0.043080  d :     0.182764
      dxz     :     0.036399
      dyz     :     0.033736
      dx2y2   :     0.039253
      dxy     :     0.030296
      f0      :     0.002724  f :     0.015742
      f+1     :     0.002296
      f-1     :     0.002534
      f+2     :     0.002921
      f-2     :     0.001996
      f+3     :     0.001637
      f-3     :     0.001634

  9 C s       :     3.172418  s :     3.172418
      pz      :     0.925273  p :     2.843624
      px      :     0.978831
      py      :     0.939521
      dz2     :     0.020208  d :     0.106976
      dxz     :     0.040741
      dyz     :     0.014151
      dx2y2   :     0.018697
      dxy     :     0.013179
      f0      :     0.001324  f :     0.007540
      f+1     :     0.001460
      f-1     :     0.000746
      f+2     :     0.001129
      f-2     :     0.000963
      f+3     :     0.001270
      f-3     :     0.000647

 10 C s       :     3.061364  s :     3.061364
      pz      :     0.922272  p :     2.554912
      px      :     0.724910
      py      :     0.907729
      dz2     :     0.035320  d :     0.176005
      dxz     :     0.048506
      dyz     :     0.026881
      dx2y2   :     0.028240
      dxy     :     0.037058
      f0      :     0.001990  f :     0.015430
      f+1     :     0.003353
      f-1     :     0.000970
      f+2     :     0.001856
      f-2     :     0.002741
      f+3     :     0.002535
      f-3     :     0.001985

 11 C s       :     3.202876  s :     3.202876
      pz      :     0.998743  p :     2.825621
      px      :     0.940757
      py      :     0.886122
      dz2     :     0.016603  d :     0.095098
      dxz     :     0.016072
      dyz     :     0.021681
      dx2y2   :     0.014706
      dxy     :     0.026037
      f0      :     0.000454  f :     0.004726
      f+1     :     0.000842
      f-1     :     0.000301
      f+2     :     0.000562
      f-2     :     0.000911
      f+3     :     0.000661
      f-3     :     0.000995

 12 C s       :     3.186217  s :     3.186217
      pz      :     0.837060  p :     2.805915
      px      :     0.955343
      py      :     1.013513
      dz2     :     0.032116  d :     0.095811
      dxz     :     0.015618
      dyz     :     0.015439
      dx2y2   :     0.023265
      dxy     :     0.009373
      f0      :     0.001158  f :     0.004785
      f+1     :     0.000975
      f-1     :     0.000734
      f+2     :     0.000833
      f-2     :     0.000652
      f+3     :     0.000149
      f-3     :     0.000284

 13 C s       :     3.111283  s :     3.111283
      pz      :     0.935589  p :     2.854663
      px      :     0.986022
      py      :     0.933052
      dz2     :     0.029453  d :     0.107305
      dxz     :     0.021320
      dyz     :     0.019300
      dx2y2   :     0.022218
      dxy     :     0.015014
      f0      :     0.001230  f :     0.007539
      f+1     :     0.000852
      f-1     :     0.001381
      f+2     :     0.001595
      f-2     :     0.000987
      f+3     :     0.000559
      f-3     :     0.000935

 14 C s       :     3.239404  s :     3.239404
      pz      :     0.975649  p :     2.877096
      px      :     0.900348
      py      :     1.001100
      dz2     :     0.018823  d :     0.093955
      dxz     :     0.026275
      dyz     :     0.012833
      dx2y2   :     0.014102
      dxy     :     0.021923
      f0      :     0.000583  f :     0.007577
      f+1     :     0.001629
      f-1     :     0.000570
      f+2     :     0.000906
      f-2     :     0.001334
      f+3     :     0.001423
      f-3     :     0.001133

 15 C s       :     3.191107  s :     3.191107
      pz      :     0.964672  p :     2.895081
      px      :     0.937600
      py      :     0.992809
      dz2     :     0.019929  d :     0.091351
      dxz     :     0.019129
      dyz     :     0.017445
      dx2y2   :     0.016762
      dxy     :     0.018086
      f0      :     0.001249  f :     0.007546
      f+1     :     0.001197
      f-1     :     0.000713
      f+2     :     0.001387
      f-2     :     0.001163
      f+3     :     0.001088
      f-3     :     0.000750

 16 C s       :     3.199598  s :     3.199598
      pz      :     0.947531  p :     2.826406
      px      :     0.961469
      py      :     0.917405
      dz2     :     0.004790  d :     0.106893
      dxz     :     0.021864
      dyz     :     0.013929
      dx2y2   :     0.023043
      dxy     :     0.043266
      f0      :     0.000939  f :     0.006417
      f+1     :     0.000524
      f-1     :     0.000472
      f+2     :     0.000985
      f-2     :     0.000717
      f+3     :     0.001183
      f-3     :     0.001597

 17 C s       :     3.193401  s :     3.193401
      pz      :     0.916375  p :     2.820083
      px      :     0.911330
      py      :     0.992378
      dz2     :     0.031401  d :     0.105910
      dxz     :     0.016859
      dyz     :     0.019425
      dx2y2   :     0.026029
      dxy     :     0.012196
      f0      :     0.001207  f :     0.006663
      f+1     :     0.001033
      f-1     :     0.001046
      f+2     :     0.001378
      f-2     :     0.000859
      f+3     :     0.000471
      f-3     :     0.000669

 18 C s       :     3.203288  s :     3.203288
      pz      :     0.998103  p :     2.978094
      px      :     0.928779
      py      :     1.051212
      dz2     :     0.002657  d :     0.067558
      dxz     :     0.017319
      dyz     :     0.002575
      dx2y2   :     0.012455
      dxy     :     0.032552
      f0      :     0.000849  f :     0.004256
      f+1     :     0.000383
      f-1     :     0.000240
      f+2     :     0.000711
      f-2     :     0.000428
      f+3     :     0.000813
      f-3     :     0.000832

 19 C s       :     3.188888  s :     3.188888
      pz      :     0.988024  p :     2.968503
      px      :     1.005475
      py      :     0.975004
      dz2     :     0.020370  d :     0.065246
      dxz     :     0.011316
      dyz     :     0.008360
      dx2y2   :     0.018626
      dxy     :     0.006573
      f0      :     0.000547  f :     0.004366
      f+1     :     0.000730
      f-1     :     0.000661
      f+2     :     0.000983
      f-2     :     0.000482
      f+3     :     0.000349
      f-3     :     0.000614

 20 H s       :     0.846244  s :     0.846244
      pz      :     0.018268  p :     0.041861
      px      :     0.010674
      py      :     0.012919
      dz2     :     0.000570  d :     0.002230
      dxz     :     0.000821
      dyz     :     0.000503
      dx2y2   :     0.000145
      dxy     :     0.000192

 21 H s       :     0.846878  s :     0.846878
      pz      :     0.013437  p :     0.040815
      px      :     0.012654
      py      :     0.014724
      dz2     :     0.000537  d :     0.002208
      dxz     :     0.000295
      dyz     :     0.000431
      dx2y2   :     0.000519
      dxy     :     0.000426

 22 H s       :     0.828476  s :     0.828476
      pz      :     0.013687  p :     0.037311
      px      :     0.013783
      py      :     0.009841
      dz2     :     0.000653  d :     0.002054
      dxz     :     0.000376
      dyz     :     0.000265
      dx2y2   :     0.000343
      dxy     :     0.000417

 23 H s       :     0.853373  s :     0.853373
      pz      :     0.010911  p :     0.036829
      px      :     0.013455
      py      :     0.012464
      dz2     :     0.000330  d :     0.002118
      dxz     :     0.000416
      dyz     :     0.000309
      dx2y2   :     0.000692
      dxy     :     0.000372

 24 H s       :     0.873645  s :     0.873645
      pz      :     0.015653  p :     0.037552
      px      :     0.010566
      py      :     0.011333
      dz2     :     0.000692  d :     0.002176
      dxz     :     0.000559
      dyz     :     0.000461
      dx2y2   :     0.000237
      dxy     :     0.000226

 25 H s       :     0.872774  s :     0.872774
      pz      :     0.009732  p :     0.037076
      px      :     0.009717
      py      :     0.017628
      dz2     :     0.000168  d :     0.002151
      dxz     :     0.000033
      dyz     :     0.000878
      dx2y2   :     0.000334
      dxy     :     0.000738

 26 H s       :     0.879587  s :     0.879587
      pz      :     0.010103  p :     0.037845
      px      :     0.017021
      py      :     0.010721
      dz2     :     0.000170  d :     0.002179
      dxz     :     0.000819
      dyz     :     0.000101
      dx2y2   :     0.000568
      dxy     :     0.000520

 27 H s       :     0.858801  s :     0.858801
      pz      :     0.010146  p :     0.037972
      px      :     0.016176
      py      :     0.011650
      dz2     :     0.000293  d :     0.002079
      dxz     :     0.000619
      dyz     :     0.000132
      dx2y2   :     0.000429
      dxy     :     0.000607

 28 H s       :     0.843454  s :     0.843454
      pz      :     0.014737  p :     0.035862
      px      :     0.009052
      py      :     0.012073
      dz2     :     0.000553  d :     0.002069
      dxz     :     0.000718
      dyz     :     0.000479
      dx2y2   :     0.000139
      dxy     :     0.000179

 29 H s       :     0.848098  s :     0.848098
      pz      :     0.011779  p :     0.035267
      px      :     0.010239
      py      :     0.013249
      dz2     :     0.000520  d :     0.002022
      dxz     :     0.000268
      dyz     :     0.000366
      dx2y2   :     0.000469
      dxy     :     0.000399

 30 H s       :     0.835546  s :     0.835546
      pz      :     0.011460  p :     0.036941
      px      :     0.010711
      py      :     0.014770
      dz2     :     0.000251  d :     0.002043
      dxz     :     0.000366
      dyz     :     0.000307
      dx2y2   :     0.000789
      dxy     :     0.000330

 31 H s       :     0.850677  s :     0.850677
      pz      :     0.009906  p :     0.036594
      px      :     0.010096
      py      :     0.016592
      dz2     :     0.000168  d :     0.002059
      dxz     :     0.000044
      dyz     :     0.000811
      dx2y2   :     0.000345
      dxy     :     0.000691

 32 H s       :     0.649750  s :     0.649750
      pz      :     0.022541  p :     0.098778
      px      :     0.047013
      py      :     0.029224
      dz2     :     0.000953  d :     0.009045
      dxz     :     0.002330
      dyz     :     0.000073
      dx2y2   :     0.002669
      dxy     :     0.003020

 33 H s       :     0.675915  s :     0.675915
      pz      :     0.038074  p :     0.095563
      px      :     0.027538
      py      :     0.029951
      dz2     :     0.002134  d :     0.008914
      dxz     :     0.002569
      dyz     :     0.001943
      dx2y2   :     0.001189
      dxy     :     0.001080

 34 H s       :     0.846533  s :     0.846533
      pz      :     0.012217  p :     0.038021
      px      :     0.009246
      py      :     0.016558
      dz2     :     0.000151  d :     0.001855
      dxz     :     0.000191
      dyz     :     0.000509
      dx2y2   :     0.000478
      dxy     :     0.000525

 35 H s       :     0.856957  s :     0.856957
      pz      :     0.011870  p :     0.038662
      px      :     0.014358
      py      :     0.012433
      dz2     :     0.000252  d :     0.001895
      dxz     :     0.000381
      dyz     :     0.000232
      dx2y2   :     0.000678
      dxy     :     0.000353

 36 H s       :     0.861453  s :     0.861453
      pz      :     0.015885  p :     0.037067
      px      :     0.012849
      py      :     0.008333
      dz2     :     0.000628  d :     0.001844
      dxz     :     0.000383
      dyz     :     0.000434
      dx2y2   :     0.000229
      dxy     :     0.000171

 37 H s       :     0.879318  s :     0.879318
      pz      :     0.008855  p :     0.039680
      px      :     0.010757
      py      :     0.020068
      dz2     :     0.000152  d :     0.001970
      dxz     :     0.000024
      dyz     :     0.000711
      dx2y2   :     0.000377
      dxy     :     0.000706

 38 H s       :     0.862466  s :     0.862466
      pz      :     0.008729  p :     0.033619
      px      :     0.009836
      py      :     0.015054
      dz2     :     0.000365  d :     0.002046
      dxz     :     0.000345
      dyz     :     0.000389
      dx2y2   :     0.000458
      dxy     :     0.000490

 39 H s       :     0.856396  s :     0.856396
      pz      :     0.018278  p :     0.033554
      px      :     0.005778
      py      :     0.009498
      dz2     :     0.000500  d :     0.002029
      dxz     :     0.000709
      dyz     :     0.000691
      dx2y2   :     0.000099
      dxy     :     0.000030

 40 C s       :     3.155429  s :     3.155429
      pz      :     0.819945  p :     2.692878
      px      :     0.882003
      py      :     0.990930
      dz2     :     0.026708  d :     0.122487
      dxz     :     0.023678
      dyz     :     0.026069
      dx2y2   :     0.017548
      dxy     :     0.028485
      f0      :     0.001218  f :     0.009726
      f+1     :     0.001899
      f-1     :     0.000811
      f+2     :     0.001865
      f-2     :     0.001980
      f+3     :     0.001099
      f-3     :     0.000854

 41 O s       :     3.780405  s :     3.780405
      pz      :     1.408031  p :     4.424543
      px      :     1.423819
      py      :     1.592692
      dz2     :     0.011902  d :     0.040564
      dxz     :     0.006938
      dyz     :     0.007180
      dx2y2   :     0.008758
      dxy     :     0.005787
      f0      :     0.000340  f :     0.002049
      f+1     :     0.000243
      f-1     :     0.000470
      f+2     :     0.000271
      f-2     :     0.000264
      f+3     :     0.000223
      f-3     :     0.000237

 42 C s       :     2.987873  s :     2.987873
      pz      :     0.737016  p :     2.209603
      px      :     0.713713
      py      :     0.758874
      dz2     :     0.077669  d :     0.312371
[...]

 43 C s       :     2.722328  s :     2.722328
      pz      :     1.009991  p :     2.775853
      px      :     0.763092
      py      :     1.002770
      dz2     :     0.116410  d :     0.489127
      dxz     :     0.091751
      dyz     :     0.040046
      dx2y2   :     0.141341
      dxy     :     0.099578
      f0      :     0.007040  f :     0.071505
      f+1     :     0.010469
      f-1     :     0.005810
      f+2     :     0.010567
      f-2     :     0.010343
      f+3     :     0.013719
      f-3     :     0.013557

 44 O s       :     3.264936  s :     3.264936
      pz      :     1.505095  p :     4.341186
      px      :     1.255726
      py      :     1.580366
      dz2     :     0.016602  d :     0.101372
      dxz     :     0.033329
      dyz     :     0.009038
      dx2y2   :     0.023822
      dxy     :     0.018582
      f0      :     0.000810  f :     0.007127
      f+1     :     0.001592
      f-1     :     0.000353
      f+2     :     0.001367
      f-2     :     0.001083
      f+3     :     0.001027
      f-3     :     0.000895

 45 O s       :     3.385029  s :     3.385029
      pz      :     1.509310  p :     4.412191
      px      :     1.493253
      py      :     1.409628
      dz2     :     0.008769  d :     0.065481
      dxz     :     0.020792
      dyz     :     0.006018
      dx2y2   :     0.015077
      dxy     :     0.014825
      f0      :     0.000693  f :     0.006455
      f+1     :     0.001179
      f-1     :     0.000170
      f+2     :     0.001282
      f-2     :     0.001148
      f+3     :     0.000910
      f-3     :     0.001074

 46 H s       :     0.812159  s :     0.812159
      pz      :     0.039167  p :     0.141050
      px      :     0.052785
      py      :     0.049099
      dz2     :     0.003670  d :     0.029380
      dxz     :     0.006528
      dyz     :     0.004294
      dx2y2   :     0.007857
      dxy     :     0.007030

 47 H s       :     0.811035  s :     0.811035
      pz      :     0.040329  p :     0.143645
      px      :     0.027301
      py      :     0.076016
      dz2     :     0.003731  d :     0.029236
      dxz     :     0.000212
      dyz     :     0.009425
      dx2y2   :     0.008425
      dxy     :     0.007443



                      *****************************
                      * MAYER POPULATION ANALYSIS *
                      *****************************

  NA   - Mulliken gross atomic population
  ZA   - Total nuclear charge
  QA   - Mulliken gross atomic charge
  VA   - Mayer's total valence
  BVA  - Mayer's bonded valence
  FA   - Mayer's free valence

  ATOM       NA         ZA         QA         VA         BVA        FA
  0 O      8.3452     8.0000    -0.3452     2.1584     2.1584     0.0000
  1 O      8.3538     8.0000    -0.3538     2.1065     2.1065    -0.0000
  2 C      5.9387     6.0000     0.0613     3.4331     3.4331     0.0000
  3 C      6.0190     6.0000    -0.0190     3.6551     3.6551    -0.0000
  4 C      6.0391     6.0000    -0.0391     3.6289     3.6289    -0.0000
  5 C      6.0725     6.0000    -0.0725     3.9105     3.9105    -0.0000
  6 C      6.0326     6.0000    -0.0326     3.7848     3.7848    -0.0000
  7 C      6.1708     6.0000    -0.1708     3.9278     3.9278    -0.0000
  8 C      5.8118     6.0000     0.1882     3.9914     3.9914    -0.0000
  9 C      6.1306     6.0000    -0.1306     3.9469     3.9469     0.0000
 10 C      5.8077     6.0000     0.1923     3.8818     3.8818     0.0000
 11 C      6.1283     6.0000    -0.1283     3.9181     3.9181     0.0000
 12 C      6.0927     6.0000    -0.0927     3.8937     3.8937    -0.0000
 13 C      6.0808     6.0000    -0.0808     3.9427     3.9427    -0.0000
 14 C      6.2180     6.0000    -0.2180     3.9004     3.9004     0.0000
 15 C      6.1851     6.0000    -0.1851     4.0116     4.0116    -0.0000
 16 C      6.1393     6.0000    -0.1393     3.7857     3.7857     0.0000
 17 C      6.1261     6.0000    -0.1261     3.8191     3.8191    -0.0000
 18 C      6.2532     6.0000    -0.2532     3.9587     3.9587     0.0000
 19 C      6.2270     6.0000    -0.2270     3.9666     3.9666     0.0000
 20 H      0.8903     1.0000     0.1097     1.0172     1.0172    -0.0000
 21 H      0.8899     1.0000     0.1101     1.0185     1.0185     0.0000
 22 H      0.8678     1.0000     0.1322     1.0084     1.0084     0.0000
 23 H      0.8923     1.0000     0.1077     1.0038     1.0038     0.0000
 24 H      0.9134     1.0000     0.0866     1.0132     1.0132     0.0000
 25 H      0.9120     1.0000     0.0880     1.0067     1.0067    -0.0000
 26 H      0.9196     1.0000     0.0804     1.0086     1.0086     0.0000
 27 H      0.8989     1.0000     0.1011     1.0068     1.0068    -0.0000
 28 H      0.8814     1.0000     0.1186     1.0154     1.0154     0.0000
 29 H      0.8854     1.0000     0.1146     1.0196     1.0196    -0.0000
 30 H      0.8745     1.0000     0.1255     1.0080     1.0080     0.0000
 31 H      0.8893     1.0000     0.1107     1.0096     1.0096    -0.0000
 32 H      0.7576     1.0000     0.2424     1.0456     1.0456    -0.0000
 33 H      0.7804     1.0000     0.2196     1.0538     1.0538    -0.0000
 34 H      0.8864     1.0000     0.1136     1.0121     1.0121     0.0000
 35 H      0.8975     1.0000     0.1025     1.0111     1.0111     0.0000
 36 H      0.9004     1.0000     0.0996     1.0094     1.0094     0.0000
 37 H      0.9210     1.0000     0.0790     1.0151     1.0151    -0.0000
 38 H      0.8981     1.0000     0.1019     0.9945     0.9945    -0.0000
 39 H      0.8920     1.0000     0.1080     0.9971     0.9971     0.0000
 40 C      5.9805     6.0000     0.0195     3.9051     3.9051    -0.0000
 41 O      8.2476     8.0000    -0.2476     2.1375     2.1375     0.0000
 42 C      5.5427     6.0000     0.4573     4.4140     4.4140    -0.0000
 43 C      5.9968     6.0000     0.0032     3.9059     3.9059     0.0000
 44 O      8.2560     8.0000    -0.2560     2.1261     2.1261    -0.0000
 45 O      8.3470     8.0000    -0.3470     2.1531     2.1531    -0.0000
 46 H      0.9063     1.0000     0.0937     0.9968     0.9968    -0.0000
 47 H      0.9026     1.0000     0.0974     0.9978     0.9978    -0.0000

  Mayer bond orders larger than 0.100000
B(  0-O ,  8-C ) :   1.1296 B(  0-O , 32-H ) :   0.9424 B(  1-O , 10-C ) :   1.0694 
B(  1-O , 33-H ) :   0.9662 B(  2-C ,  3-C ) :   0.8454 B(  2-C ,  7-C ) :   1.3650 
B(  2-C ,  8-C ) :   1.2826 B(  3-C ,  5-C ) :   1.4178 B(  3-C ,  9-C ) :   1.3643 
B(  4-C ,  5-C ) :   1.4015 B(  4-C , 10-C ) :   1.3166 B(  4-C , 11-C ) :   0.9131 
B(  5-C , 20-H ) :   0.9502 B(  6-C ,  7-C ) :   1.4390 B(  6-C , 12-C ) :   0.9266 
B(  6-C , 13-C ) :   1.3791 B(  7-C , 21-H ) :   0.9522 B(  8-C , 15-C ) :   1.4398 
B(  9-C , 14-C ) :   1.4504 B(  9-C , 22-H ) :   0.9891 B( 10-C , 14-C ) :   1.3754 
B( 11-C , 16-C ) :   0.9219 B( 11-C , 23-H ) :   1.0161 B( 11-C , 24-H ) :   0.9967 
B( 12-C , 17-C ) :   0.9345 B( 12-C , 25-H ) :   1.0059 B( 12-C , 26-H ) :   1.0017 
B( 13-C , 15-C ) :   1.4717 B( 13-C , 27-H ) :   0.9762 B( 14-C , 28-H ) :   0.9966 
B( 15-C , 29-H ) :   0.9738 B( 16-C , 18-C ) :   1.8730 B( 16-C , 30-H ) :   0.9791 
B( 17-C , 19-C ) :   1.9074 B( 17-C , 31-H ) :   0.9800 B( 18-C , 34-H ) :   0.9998 
B( 18-C , 35-H ) :   1.0011 B( 19-C , 36-H ) :   0.9974 B( 19-C , 37-H ) :   0.9995 
B( 38-H , 40-C ) :   0.9897 B( 39-H , 43-C ) :   0.9853 B( 40-C , 43-C ) :   0.9642 
B( 40-C , 44-O ) :   0.9248 B( 40-C , 46-H ) :   0.9821 B( 41-O , 42-C ) :   1.1563 
B( 41-O , 43-C ) :   0.9289 B( 42-C , 44-O ) :   1.1480 B( 42-C , 45-O ) :   2.0166 
B( 43-C , 47-H ) :   0.9848 

-------
TIMINGS
-------

Total SCF time: 0 days 0 hours 1 min 42 sec 

Total time                  ....     102.452 sec
Sum of individual times     ....     102.368 sec  ( 99.9%)

SCF preparation             ....       0.940 sec  (  0.9%)
Fock matrix formation       ....      92.106 sec  ( 89.9%)
  Startup                   ....       0.303 sec  (  0.3% of F)
  Split-RI-J                ....       6.152 sec  (  6.7% of F)
  Chain of spheres X        ....      77.588 sec  ( 84.2% of F)
  XC integration            ....       6.319 sec  (  6.9% of F)
    XC Preparation          ....       0.000 sec  (  0.0% of XC)
    Basis function eval.    ....       1.390 sec  ( 22.0% of XC)
    Density eval.           ....       1.809 sec  ( 28.6% of XC)
    XC-Functional eval.     ....       0.143 sec  (  2.3% of XC)
    XC-Potential eval.      ....       1.841 sec  ( 29.1% of XC)
Diagonalization             ....       0.000 sec  (  0.0%)
Density matrix formation    ....       1.033 sec  (  1.0%)
Total Energy calculation    ....       0.385 sec  (  0.4%)
Population analysis         ....       0.260 sec  (  0.3%)
Orbital Transformation      ....       0.884 sec  (  0.9%)
Orbital Orthonormalization  ....       0.000 sec  (  0.0%)
DIIS solution               ....       4.495 sec  (  4.4%)
SOSCF solution              ....       2.264 sec  (  2.2%)
Finished LeanSCF after 102.6 sec

Maximum memory used throughout the entire LEANSCF-calculation: 179.7 MB


-------------------------------------------------------------------------------
                          DFT DISPERSION CORRECTION                            
                                                                               
                              DFTD3 V3.1  Rev 1                                
                              USING zero damping                               
-------------------------------------------------------------------------------
The omegaB97X-D3 functional is recognized. Fit by Chai et al.
Active option DFTDOPT                   ...         3   

molecular C6(AA) [au] = 24645.213902 


            DFT-D V3
 parameters
 s6 scaling factor         :     1.0000 
 rs6 scaling factor        :     1.2810 
 s8 scaling factor         :     1.0000 
 rs8 scaling factor        :     1.0940 
 Damping factor alpha6     :    14.0000 
 Damping factor alpha8     :    16.0000 
 ad hoc parameters k1-k3   :    16.0000     1.3333    -4.0000 

 Edisp/kcal,au: -15.268720539737  -0.024332252408 
 E6   /kcal   :  -7.551472066 
 E8   /kcal   :  -7.717248474 
 % E8         :  50.542862800 

-------------------------   ----------------
Dispersion correction           -0.024332252
-------------------------   ----------------


-------------------------   --------------------
FINAL SINGLE POINT ENERGY     -1189.718072115306
-------------------------   --------------------

--------------------------------------------------------------------------
WARNING: There was an error initializing an OpenFabrics device.

  Local host:   ga01
  Local device: mlx5_0
--------------------------------------------------------------------------


           ************************************************************
           *        Program running with 25 parallel MPI-processes    *
           *              working on a common directory               *
           ************************************************************

------------------------------------------------------------------------------
                              ORCA PROPERTY CALCULATIONS
------------------------------------------------------------------------------

GBWName                                 ... honokiol2-opt_EC.gbw
Number of atoms                         ...     48
Number of basis functions               ...   1114
Max core memory                         ...   5000 MB

Electric properties:
Dipole moment                           ... YES
Quadrupole moment                       ...  NO
Static polarizability (Dipole/Dipole)   ...  NO
Static polarizability (Dipole/Quad.)    ...  NO
Static polarizability (Quad./Quad.)     ...  NO
Static polarizability (Velocity)        ...  NO

Atomic electric properties:
Dipole moment                           ...  NO
Quadrupole moment                       ...  NO
Static polarizability                   ...  NO

Choice of electric origin               ... Center of mass
Position of electric origin             ...    -1.624875     0.194417     1.931157

General magnetic properties:
Magnetizability                         ...  NO

EPR properties:
g-Tensor (aka g-matrix)                 ...  NO
Zero-Field splitting spin-orbit         ...  NO
Zero-field splitting spin-spin          ...  NO
Hyperfine couplings                     ...  NO (   0 nuclei)
Quadrupole couplings                    ...  NO (   0 nuclei)
Contact density                         ...  NO (   0 nuclei)

NMR properties:
Chemical shifts                         ...  NO (   0 nuclei)
Spin-rotation constants                 ...  NO (   0 nuclei)
Spin-spin couplings                     ...  NO (   0 nuclei,    0 pairs)

Choice of magnetic origin               ... GIAO
Position of magnetic origin             ...     0.000000     0.000000     0.000000

Properties with geometric perturbations:
SCF Hessian                             ...  NO
IR spectrum                             ...  NO
VCD spectrum                            ...  NO
X-ray spectroscopy properties:
SCF XES/XAS/RIXS spectra                ...  NO


-------------
DIPOLE MOMENT
-------------

Method             : SCF
Type of density    : Electron Density
Multiplicity       :   1
Irrep              :   0
Energy             : -1189.6937398628986102 Eh
Relativity type    : 
Basis              : AO
                                X                 Y                 Z
Electronic contribution:      2.157559329       8.557759548      15.212997048
Nuclear contribution   :     -4.778427685      -9.267079488     -14.743401936
                        -----------------------------------------
Total Dipole Moment    :     -2.620868356      -0.709319939       0.469595111
                        -----------------------------------------
Magnitude (a.u.)       :      2.755468252
Magnitude (Debye)      :      7.003843691



--------------------
Rotational spectrum 
--------------------
 
Rotational constants in cm-1:             0.009338             0.004131             0.003151 
Rotational constants in MHz :           279.941052           123.851766            94.450563 

Dipole components along the rotational axes: 
x,y,z [a.u.] :     2.408304    -1.338687     0.024356 
x,y,z [Debye]:     6.121422    -3.402673     0.061907 

 

Dipole moment calculation done in   0.1 sec 

Maximum memory used throughout the entire PROP-calculation: 106.6 MB
[ga01:888048] 24 more processes have sent help message help-mpi-btl-openib.txt / error in device init
[ga01:888048] Set MCA parameter "orte_base_help_aggregate" to 0 to see all help / error messages
--------------------------------------------------------------------------
WARNING: There was an error initializing an OpenFabrics device.

  Local host:   ga01
  Local device: mlx5_0
--------------------------------------------------------------------------
[ga01:888152] 24 more processes have sent help message help-mpi-btl-openib.txt / error in device init
[ga01:888152] Set MCA parameter "orte_base_help_aggregate" to 0 to see all help / error messages

--------------------------------
SUGGESTED CITATIONS FOR THIS RUN
--------------------------------

Below you find a list of papers that are relevant to this ORCA run
We neither can nor want to force you to cite these papers, but we appreciate if you do
You receive ORCA, which is the product of decades of hard work by many enthusiastic individuals, for free
The only thing we kindly ask in return is that you cite our papers,
We deeply appreciate it, if you show your appreciation for ORCA by not just citing the generic ORCA reference.

Please note that relegating all ORCA citations to the supporting information does *not* help us.
SI sections are not indexed - citations you put there will not count into any citation statistics
But we need these citations in order to attract the funding resources that allow us to do what we are doing

Therefore, if you are a happy ORCA user, please consider citing a few of the papers listed below in the main body of your paper

In addition to the list printed below, the program has created the file honokiol2-opt_EC.bibtex that contains the list in bibtex format
You can import this file easily into all common literature databanks and citation aid programs


List of essential papers. We consider these as the minimum necessary citations

  1. Neese,F.
     Software update: the ORCA program system, version 5.0
     WIRES Comput. Molec. Sci., 2022 12(1)e1606
     doi.org/10.1002/wcms.1606

List of papers to cite with high priority. The work reported in these papers was absolutely
necessary for this run to complete.
Our perspective: the developers of density functionals and basis sets usually get cited in chemistry papers
Good! But without the algorithms to do something with them, the functionals or basis sets would not do anything.
Hence, in our opinion, the algorithm design and method developments papers are equally worthy of getting cited

  1. Neese,F.
     An improvement of the resolution of the identity approximation for the formation of the Coulomb matrix
     J. Comp. Chem., 2003 24(14)1740-1747
     doi.org/10.1002/jcc.10318
  2. Neese,F.; Wennmohs,F.; Hansen,A.; Becker,U.
     Efficient, approximate and parallel Hartree-Fock and hybrid DFT calculations. A 'chain-of-spheres' algorithm for the Hartree-Fock exchange
     Chem. Phys., 2009 356(1-3)98-109
     doi.org/10.1016/j.chemphys.2008.10.036
  3. Helmich-Paris,B.; de Souza,B.; Neese,F.; Izsák,R.
     An improved chain of spheres for exchange algorithm
     J. Chem. Phys., 2021 155 104109
     doi.org/doi: 10.1063/5.0058766.
  4. Neese,F.
     The SHARK Integral Generation and Digestion System
     J. Comp. Chem., 2022  1-16
     doi.org/10.1002/jcc.26942
  5. Grimme,S.; Antony,J.; Ehrlich,S.; Krieg,H.
     A consistent and accurate ab initio parametrization of density functional dispersion correction (DFT-D) for the 94 elements H-Pu
     J. Chem. Phys., 2010 132 154104
     doi.org/10.1063/1.3382344

List of suggested additional citations. These are papers that are important in the 'surrounding' of 
of this run, or papers that preceded the highly important papers. If you like your results we are grateful for a citation.

  1. Izsak,R.; Neese,F.
     An overlap fitted chain of spheres exchange method
     J. Chem. Phys., 2011 135 144105
     doi.org/10.1063/1.3646921
  2. Izsak,R.; Hansen,A.; Neese,F.
     The resolution of identity and chain of spheres approximations for the LPNO-CCSD singles Fock term
     Molec. Phys., 2012 110 2413-2417
     doi.org/10.1080/00268976.2012.687466
  3. Neese,F.
     The ORCA program system
     WIRES Comput. Molec. Sci., 2012 2(1)73-78
     doi.org/10.1002/wcms.81
  4. Izsak,R.; Neese,F.; Klopper,W.
     Robust fitting techniques in the chain of spheres approximation to the Fock exchange: The role of the complementary space
     J. Chem. Phys., 2013 139 
     doi.org/10.1063/1.4819264
  5. Neese,F.
     Software update: the ORCA program system, version 4.0
     WIRES Comput. Molec. Sci., 2018 8(1)1-6
     doi.org/10.1002/wcms.1327
  6. Neese,F.; Wennmohs,F.; Becker,U.; Riplinger,C.
     The ORCA quantum chemistry program package
     J. Chem. Phys., 2020 152 Art. No. L224108
     doi.org/10.1063/5.0004608

List of optional additional citations

  1. Neese,F.
     Approximate second-order SCF convergence for spin unrestricted wavefunctions
     Chem. Phys. Lett., 2000 325(1-3)93-98
     doi.org/10.1016/s0009-2614(00)00662-x

Timings for individual modules:

Sum of individual times          ...      111.491 sec (=   1.858 min)
Startup calculation              ...        4.796 sec (=   0.080 min)   4.3 %
SCF iterations                   ...      105.449 sec (=   1.757 min)  94.6 %
Property calculations            ...        1.246 sec (=   0.021 min)   1.1 %
                             ****ORCA TERMINATED NORMALLY****
TOTAL RUN TIME: 0 days 0 hours 1 minutes 52 seconds 604 msec
