
                                 *****************
                                 * O   R   C   A *
                                 *****************

                                            #,                                       
                                            ###                                      
                                            ####                                     
                                            #####                                    
                                            ######                                   
                                           ########,                                 
                                     ,,################,,,,,                         
                               ,,#################################,,                 
                          ,,##########################################,,             
                       ,#########################################, ''#####,          
                    ,#############################################,,   '####,        
                  ,##################################################,,,,####,       
                ,###########''''           ''''###############################       
              ,#####''   ,,,,##########,,,,          '''####'''          '####       
            ,##' ,,,,###########################,,,                        '##       
           ' ,,###''''                  '''############,,,                           
         ,,##''                                '''############,,,,        ,,,,,,###''
      ,#''                                            '''#######################'''  
     '                                                          ''''####''''         
             ,#######,   #######,   ,#######,      ##                                
            ,#'     '#,  ##    ##  ,#'     '#,    #''#        ,####,   ,####,        
            ##       ##  ##   ,#'  ##            #'  '#       #'       #'  '#        
            ##       ##  #######   ##           ,######,      #####,   #    #        
            '#,     ,#'  ##    ##  '#,     ,#' ,#      #,     #,   #   #,  ,#        
             '#######'   ##     ##  '#######'  #'      '#     '####' # '####'        



                #########################################################
                #                        -***-                          #
                #          Department of theory and spectroscopy        #
                #                                                       #
                #                      Frank Neese                      #
                #                                                       #
                #     Directorship, Architecture, Infrastructure        #
                #                    SHARK, DRIVERS                     #
                #        Core code/Algorithms in most modules           #
                #                                                       #
                #        Max Planck Institute fuer Kohlenforschung      #
                #                Kaiser Wilhelm Platz 1                 #
                #                 D-45470 Muelheim/Ruhr                 #
                #                      Germany                          #
                #                                                       #
                #                  All rights reserved                  #
                #                        -***-                          #
                #########################################################


                         Program Version 6.0.1  -  RELEASE   -


 With contributions from (in alphabetic order):
[Max-Planck-Institut fuer Kohlenforschung]                               
  Daniel Aravena         : Magnetic Suceptibility                        
  Michael Atanasov       : Ab Initio Ligand Field Theory (pilot matlab implementation)
  Alexander A. Auer      : GIAO ZORA, VPT2 properties, NMR spectrum      
  Ute Becker             : All parallelization in ORCA, NUMFREQ, NUMCALC 
  Giovanni Bistoni       : ED, misc. LED, open-shell LED, HFLD           
  Martin Brehm           : Molecular dynamics                            
  Dmytro Bykov           : pre 5.0 version of the SCF Hessian            
  Marcos Casanova-Páez   : Triplet and SCS-CIS(D). UHF-(DLPNO)-IP/EA/STEOM-CCSD. UHF-CVS-IP/STEOM-CCSD   
  Vijay G. Chilkuri      : MRCI spin determinant printing, contributions to CSF-ICE 
  Pauline Colinet        : FMM embedding                                 
  Dipayan Datta          : RHF DLPNO-CCSD density                        
  Achintya Kumar Dutta   : EOM-CC, STEOM-CC                              
  Nicolas Foglia         : Exact transition moments, OPA infrastructure, MCD improvements    
  Dmitry Ganyushin       : Spin-Orbit,Spin-Spin,Magnetic field MRCI      
  Miquel Garcia-Rates    : C-PCM and meta-GGA Hessian, CCSD/C-PCM, Gaussian charge scheme 
  Tiago L. C. Gouveia    : GS-ROHF, GS-ROCIS                             
  Yang Guo               : DLPNO-NEVPT2, F12-NEVPT2, CIM, IAO-localization        
  Andreas Hansen         : Spin unrestricted coupled pair/coupled cluster methods 
  Ingolf Harden          : AUTO-CI MPn and infrastructure                
  Benjamin Helmich-Paris : MC-RPA, TRAH-(SCF,CASSCF), AVAS, COSX integrals, SCF dyn. polar. 
  Lee Huntington         : MR-EOM, pCC                                   
  Robert Izsak           : Overlap fitted RIJCOSX, COSX-SCS-MP3, EOM     
  Riya Kayal             : Wick's Theorem for AUTO-CI, AUTO-CI UHF-CCSDT 
  Emily Kempfer          : AUTO-CI, RHF CISDT and CCSDT                  
  Christian Kollmar      : KDIIS, OOCD, Brueckner-CCSD(T), CCSD density, CASPT2, CASPT2-K, improved NEVPT2 
  Axel Koslowski         : Symmetry handling                             
  Simone Kossmann        : meta-GGA functionals, TD-DFT gradient, OOMP2, (MP2 Hessian; deprecated post 5.0) 
  Lucas Lang             : DCDCAS                                        
  Marvin Lechner         : AUTO-CI (C++ implementation), FIC-MRCC        
  Spencer Leger          : CASSCF response                               
  Dagmar Lenk            : GEPOL surface, SMD, ORCA-2-JSON               
  Dimitrios Liakos       : Extrapolation schemes; Compound Job, initial MDCI parallelization 
  Dimitrios Manganas     : Further ROCIS development; embedding schemes. LFT, Crystal Embedding 
  Dimitrios Pantazis     : SARC Basis sets                               
  Anastasios Papadopoulos: AUTO-CI, single reference methods and gradients 
  Taras Petrenko         : pre 6.0 DFT Hessian and TD-DFT gradient, (ASA, deprecated), ECA, 1-Electron XAS/XES, NRVS 
  Peter Pinski           : DLPNO-MP2, DLPNO-MP2 Gradient                 
  Christoph Reimann      : Effective Core Potentials                     
  Marius Retegan         : Local ZFS, SOC                                
  Christoph Riplinger    : Optimizer, TS searches, QM/MM, DLPNO-CCSD(T), (RO)-DLPNO pert. Triples 
  Michael Roemelt        : Original ROCIS implementation                 
  Masaaki Saitow         : Open-shell DLPNO-CCSD energy and density      
  Barbara Sandhoefer     : DKH picture change effects                    
  Kantharuban Sivalingam : CASSCF convergence/infrastructure, NEVPT2 and variants, FIC-MRCI 
  Bernardo de Souza      : ESD, SOC TD-DFT                               
  Georgi L. Stoychev     : AutoAux, RI-MP2 NMR, DLPNO-MP2 response, X2C  
  Van Anh Tran           : RI-MP2 g-tensors                              
  Willem Van den Heuvel  : Paramagnetic NMR                              
  Zikuan Wang            : NOTCH, Electric field optimization            
  Frank Wennmohs         : Technical directorship and infrastructure     
  Hang Xu                : AUTO-CI-Response properties                   
                                                                         
[FACCTs GmbH]                                                            
  Markus Bursch, Miquel Garcia-Rates, Christoph Riplinger, Bernardo de Souza, Georgi L. Stoychev 
                                                                 
  APM, Basis sets (HGBS, AHGBS, def-TZVP (Ac-Lr), def2-XVPD (La-Lu)), CI-OPT, improved COSX, DLPNO-Multilevel,           
  DOCKER, DRACO, updates on ESD, GOAT, IRC, LR-CPCM, MBIS, meta-GGA TD-DFT gradient, ML-optimized integration grids, 
  MM, NACMEs, nearIR, NEB, NEB-TS, NL-DFT gradient (VV10), 2- and 3-layer-ONIOM, interface openCOSMO-RS, QMMM,   
  Crystal-QMMM, SF, symmetry and pop. for TD-DFT, r2SCAN hybrids, SOLVATOR                                   
                                                                         
[Other institutions]                                                     
  V. Asgeirsson          : NEB                                           
  Christoph Bannwarth    : sTDA-DFT, sTD-DFT, PBEh-3c, B97-3c, D3        
  Sebastian Ehlert       : rSCAN, r2SCAN, r2SCAN-3c, D4, dhf basis sets  
  Marvin Friede          : D4 for Fr, Ra, Ac-Lr                          
  Lars Goerigk           : TD-DFT with DH, B97 family of functionals     
  Stefan Grimme          : VdW corrections, initial TS optimization, DFT functionals, gCP, sTDA/sTD-DF 
  Waldemar Hujo          : DFT-NL                                        
  H. Jonsson             : NEB                                           
  Holger Kruse           : gCP                                           
  Marcel Mueller         : wB97X-3c, vDZP basis set                      
  Hagen Neugebauer       : wr2SCAN                                       
  Tobias Risthaus        : range-separated hybrid DFT                    
  Lukas Wittmann         : regularized MP2, r2SCAN double-hybrids, wr2SCAN        
                                                                         
We gratefully acknowledge several colleagues who have allowed us to      
interface, adapt or use parts of their codes:                            
  Ed Valeev, F. Pavosevic, A. Kumar             : LibInt (2-el integral package), F12 methods 
  Garnet Chan, S. Sharma, J. Yang, R. Olivares  : DMRG                   
  Ulf Ekstrom                                   : XCFun DFT Library      
  Mihaly Kallay                                 : mrcc  (arbitrary order and MRCC methods)
  Frank Weinhold                                : gennbo (NPA and NBO analysis)           
  Simon Mueller                                 : openCOSMO-RS                            
  Christopher J. Cramer and Donald G. Truhlar   : smd solvation model                     
  S Lehtola, MJT Oliveira, MAL Marques          : LibXC Library                           
  Liviu Ungur et al                             : ANISO software                          


 Your calculation uses the libint2 library for the computation of 2-el integrals
 For citations please refer to: http://libint.valeyev.net

 Your ORCA version has been built with support for libXC version: 6.2.2
 For citations please refer to: https://libxc.gitlab.io

 This ORCA versions uses:
   CBLAS   interface :  Fast vector & matrix operations
   LAPACKE interface :  Fast linear algebra routines
   SCALAPACK package :  Parallel linear algebra routines
   Shared memory     :  Shared parallel matrices
   BLAS/LAPACK       :  OpenBLAS 0.3.27  USE64BITINT DYNAMIC_ARCH NO_AFFINITY SkylakeX SINGLE_THREADED
        Core in use  :  SkylakeX
   Copyright (c) 2011-2014, The OpenBLAS Project


NOTE: MaxCore=5000 MB was set to SCF,MP2,MDCI,CIPSI,MRCI and CIS
      => If you want to overwrite this, your respective input block should be placed after the MaxCore statement
Warning: RI is on but no J-basis has been assigned. Assigning Def2/J (nothing to worry about!)
================================================================================

----- Orbital basis set information -----
Your calculation utilizes the basis: def2-TZVP
   F. Weigend and R. Ahlrichs, Phys. Chem. Chem. Phys. 7, 3297 (2005).

----- AuxJ basis set information -----
Your calculation utilizes the auxiliary basis: def2/J
   F. Weigend, Phys. Chem. Chem. Phys. 8, 1057 (2006).

================================================================================
                                        WARNINGS
                       Please study these warnings very carefully!
================================================================================


WARNING: Geometry Optimization
  ===> : Switching off AutoStart
         For restart on a previous wavefunction, please use MOREAD

================================================================================
                                       INPUT FILE
================================================================================
NAME = honokiol2-opt_EC2.inp
|  1> ! OPT B3LYP def2-TZVP TightSCF
|  2> 
|  3> %maxcore 5000
|  4> 
|  5> %pal
|  6> nprocs 25
|  7> end
|  8> 
|  9> * xyz 0 1
| 10> O           1.46731385914879      1.97722946713399      2.20714295437809
| 11>   O          -3.95505885896734     -1.25621028462468      2.07841549143793
| 12>   C           1.22985031581860      0.31265907408137      0.43392436984225
| 13>   C          -0.13275624677393     -0.10722142137588      0.85244544102870
| 14>   C          -2.50558056640920     -0.41046440085566      0.31206595892365
| 15>   C          -1.21002421202487     -0.02939017031293     -0.03388066289495
| 16>   C           3.11377878244010      0.05477838280380     -1.11102666649661
| 17>   C           1.83219545420727     -0.27852943006493     -0.68009334254243
| 18>   C           1.94809957666899      1.30297838082666      1.13014888407846
| 19>   C          -0.37758873731677     -0.62213618157910      2.12885786379950
| 20>   C          -2.71515205299013     -0.90670668872194      1.60828132232053
| 21>   C          -3.64407396265835     -0.23747275218352     -0.67559715882710
| 22>   C           3.73951915015728     -0.63859636530098     -2.30838717397596
| 23>   C           3.80423435834439      1.03049408228631     -0.39247542843139
| 24>   C          -1.65066147884053     -1.02723968732397      2.49697763185016
| 25>   C           3.23075143288693      1.64864292655080      0.70852237526069
| 26>   C          -4.47480124888788     -1.47299892196816     -0.89892557775908
| 27>   C           2.96806599383838     -0.45100194754254     -3.58596108827867
| 28>   C          -5.79875141860628     -1.52644136651747     -0.77816005465234
| 29>   C           2.49228827554335     -1.43129503709170     -4.34472602439992
| 30>   H          -1.03765548343608      0.36710463870484     -1.02814372533824
| 31>   H           1.27792756253908     -1.04314389277511     -1.21407444044224
| 32>   H           0.43783176480711     -0.72327107277225      2.83408019061916
| 33>   H          -4.29690471405661      0.58468275114761     -0.36775220782600
| 34>   H          -3.20783395112978      0.06218759156776     -1.63159651845050
| 35>   H           3.84983894399460     -1.71021945766209     -2.11040286867137
| 36>   H           4.75153691869541     -0.24211006629299     -2.44364301360679
| 37>   H           4.80629341679545      1.31254980073547     -0.69628073823685
| 38>   H          -1.83746288537519     -1.44181140125006      3.47881723650265
| 39>   H           3.76123643989840      2.41576651505437      1.25814141949899
| 40>   H          -3.92894795807215     -2.37136628928331     -1.17780358079313
| 41>   H           2.79741682247566      0.58072136939586     -3.88345602133261
| 42>   H           0.53030795303827      1.79802946985933      2.37934598430118
| 43>   H          -4.56717601594505     -1.38880306988565      1.33721402027161
| 44>   H          -6.34721696989530     -2.44157122497162     -0.96239919006528
| 45>   H          -6.37821660232202     -0.64973399240605     -0.50933196807329
| 46>   H           1.94686772711853     -1.22957255310202     -5.25880553987447
| 47>   H           2.63573771813524     -2.47340710508360     -4.08156761476138
| 48>   H          -5.19165057456470      2.71583858558064      4.29861836335839
| 49>   H          -4.22559631114847      1.17267742898786      5.87782736567058
| 50>   C          -4.58707998971834      1.93695620192991      3.83654607513520
| 51>   O          -2.51017298190678      1.35269820000096      4.75399877979836
| 52>   C          -2.30903355949237      2.19410742540931      3.72742196528982
| 53>   C          -3.90549229208885      1.00495597156416      4.85106766623169
| 54>   O          -3.47847577293658      2.56467096550606      3.16660232699907
| 55>   O          -1.24172742201337      2.58406475371058      3.35493747221842
| 56>   H          -5.17334083514743      1.40610301055350      3.09007484483484
| 57>   H          -4.01597426774121     -0.04648424400393      4.58885584767508
| 58>   O          -5.77661308909541      2.58947041052128      0.47995002073170
| 59>   C          -4.92509025055264      3.42191068292930      0.57303904643295
| 60>   O          -3.76016189057488      3.40461541644120     -0.10480153353998
| 61>   O          -5.00217150024693      4.50745344945610      1.37075585801774
| 62>   C          -2.88012404606797      4.42523978439694      0.39965929942539
| 63>   C          -3.81167330715096      5.30304664152377      1.24387966100316
| 64>   H          -2.10243244136613      3.94664357177644      0.99234177954264
| 65>   H          -4.07843715017262      6.24153306238284      0.75858832286020
| 66>   H          -2.44042311453248      4.94796965279080     -0.44600751772881
| 67>   H          -3.41877558152608      5.49907436974217      2.23868349006033
| 68> *
| 69> 
| 70>                          ****END OF INPUT****
================================================================================

                       *****************************
                       * Geometry Optimization Run *
                       *****************************

Geometry optimization settings:
Update method            Update   .... BFGS
Choice of coordinates    CoordSys .... (2022) Redundant Internals
Initial Hessian          InHess   .... Almloef's Model
Max. no of cycles        MaxIter  .... 174

Convergence Tolerances:
Energy Change            TolE     ....  5.0000e-06 Eh
Max. Gradient            TolMAXG  ....  3.0000e-04 Eh/bohr
RMS Gradient             TolRMSG  ....  1.0000e-04 Eh/bohr
Max. Displacement        TolMAXD  ....  4.0000e-03 bohr
RMS Displacement         TolRMSD  ....  2.0000e-03 bohr
Strict Convergence                .... False

------------------------------------------------------------------------------
                        ORCA OPTIMIZATION COORDINATE SETUP
------------------------------------------------------------------------------

The optimization will be done in redundant internal coordinates (2022)
Making redundant internal coordinates   ...  (2022 redundants) done
Evaluating the initial hessian          ...  (Almloef) done
Evaluating the coordinates              ...  done
Calculating the B-matrix                .... done
Calculating the G-matrix                .... done
Diagonalizing the G-matrix              .... done
Small eigenvalue found = 3.273e-03
Small eigenvalue found = 5.506e-03
Small eigenvalue found = 1.078e-02
Small eigenvalue found = 1.299e-02
Small eigenvalue found = 1.483e-02
Small eigenvalue found = 2.183e-02
The first mode is                       ....  274
The number of degrees of freedom        ....  168

    -----------------------------------------------------------------
                    Redundant Internal Coordinates


    -----------------------------------------------------------------
         Definition                    Initial Value    Approx d2E/dq
    -----------------------------------------------------------------
      1. B(C   3,C   2)                  1.4860         0.439135   
      2. B(C   5,C   3)                  1.3972         0.608511   
      3. B(C   5,C   4)                  1.3940         0.615580   
      4. B(C   7,C   6)                  1.3926         0.618924   
      5. B(C   7,C   2)                  1.3976         0.607535   
      6. B(C   8,O   0)                  1.3586         0.628110   
      7. B(C   8,C   2)                  1.4076         0.585674   
      8. B(C   9,C   3)                  1.3980         0.606777   
      9. B(C  10,O   1)                  1.3713         0.599323   
     10. B(C  10,C   4)                  1.4037         0.594147   
     11. B(C  11,C   4)                  1.5171         0.391714   
     12. B(C  12,C   6)                  1.5185         0.389625   
     13. B(C  13,C   6)                  1.3947         0.614200   
     14. B(C  14,C   9)                  1.3858         0.634601   
     15. B(C  14,C  10)                  1.3919         0.620398   
     16. B(C  15,C  13)                  1.3868         0.632208   
     17. B(C  15,C   8)                  1.3937         0.616322   
     18. B(C  16,C  11)                  1.5055         0.408768   
     19. B(C  17,C  12)                  1.5042         0.410760   
     20. B(C  18,C  16)                  1.3305         0.777382   
     21. B(C  19,C  17)                  1.3278         0.785179   
     22. B(H  20,C   5)                  1.0842         0.367862   
     23. B(H  21,C   7)                  1.0849         0.366925   
     24. B(H  22,C   9)                  1.0828         0.369738   
     25. B(H  23,C  11)                  1.0940         0.354811   
     26. B(H  24,C  11)                  1.0927         0.356520   
     27. B(H  25,C  12)                  1.0953         0.353120   
     28. B(H  26,C  12)                  1.0953         0.353160   
     29. B(H  27,C  13)                  1.0844         0.367552   
     30. B(H  28,C  14)                  1.0820         0.370809   
     31. B(H  29,C  15)                  1.0826         0.370054   
     32. B(H  30,C  16)                  1.0876         0.363339   
     33. B(H  31,C  17)                  1.0872         0.363778   
     34. B(H  32,O   0)                  0.9694         0.502298   
     35. B(H  33,O   1)                  0.9704         0.500492   
     36. B(H  34,C  18)                  1.0827         0.369899   
     37. B(H  35,C  18)                  1.0847         0.367124   
     38. B(H  36,C  19)                  1.0834         0.368962   
     39. B(H  37,C  19)                  1.0844         0.367644   
     40. B(C  40,H  38)                  1.0889         0.361576   
     41. B(C  42,O  41)                  1.3425         0.666301   
     42. B(C  43,O  41)                  1.4413         0.463527   
     43. B(C  43,C  40)                  1.5370         0.364060   
     44. B(C  43,H  39)                  1.0885         0.362090   
     45. B(O  44,C  42)                  1.3489         0.650889   
     46. B(O  44,C  40)                  1.4394         0.466736   
     47. B(O  45,H  32)                  2.1702         0.006098   
     48. B(O  45,C  42)                  1.1958         1.142085   
     49. B(H  46,C  40)                  1.0875         0.363379   
     50. B(H  47,H  28)                  2.8151         0.000122   
     51. B(H  47,O   1)                  2.7874         0.000632   
     52. B(H  47,O  41)                  2.0621         0.009069   
     53. B(H  47,C  43)                  1.0893         0.361080   
     54. B(O  48,H  23)                  2.6320         0.001118   
     55. B(O  48,H  46)                  2.9287         0.000376   
     56. B(C  49,O  48)                  1.1945         1.147787   
     57. B(C  49,H  46)                  3.2343         0.000137   
     58. B(C  49,O  44)                  3.0910         0.001082   
     59. B(C  49,H  23)                  3.0544         0.000264   
     60. B(O  50,C  49)                  1.3479         0.653204   
     61. B(O  50,O  44)                  3.3892         0.000324   
     62. B(O  50,H  23)                  2.8826         0.000445   
     63. B(O  51,C  49)                  1.3493         0.649769   
     64. B(O  51,O  44)                  3.0531         0.001114   
     65. B(C  52,O  50)                  1.4390         0.467471   
     66. B(C  52,O  44)                  3.3876         0.000364   
     67. B(C  53,C  52)                  1.5333         0.369061   
     68. B(C  53,O  51)                  1.4375         0.470026   
     69. B(C  53,O  44)                  3.3625         0.000399   
     70. B(H  54,C  52)                  1.0886         0.361907   
     71. B(H  54,O  50)                  2.0605         0.009125   
     72. B(H  54,C  42)                  3.2550         0.000127   
     73. B(H  54,O  44)                  2.9207         0.000387   
     74. B(H  54,O  45)                  2.8599         0.000484   
     75. B(H  55,C  53)                  1.0897         0.360508   
     76. B(H  56,C  52)                  1.0871         0.363988   
     77. B(H  57,C  53)                  1.0874         0.363561   
     78. B(H  57,O  44)                  3.0782         0.000217   
     79. A(C   8,O   0,H  32)          113.0257         0.368748   
     80. A(C  10,O   1,H  47)          102.5867         0.150048   
     81. A(H  33,O   1,H  47)          137.1764         0.139515   
     82. A(C  10,O   1,H  33)          110.0785         0.365568   
     83. A(C   3,C   2,C   8)          121.8290         0.404065   
     84. A(C   3,C   2,C   7)          120.0110         0.406689   
     85. A(C   7,C   2,C   8)          118.1600         0.428084   
     86. A(C   2,C   3,C   5)          120.8373         0.406804   
     87. A(C   2,C   3,C   9)          121.4548         0.406599   
     88. A(C   5,C   3,C   9)          117.6902         0.430936   
     89. A(C   5,C   4,C  11)          120.3112         0.399500   
     90. A(C  10,C   4,C  11)          121.9681         0.397020   
     91. A(C   5,C   4,C  10)          117.6812         0.430202   
     92. A(C   4,C   5,H  20)          118.3786         0.353757   
     93. A(C   3,C   5,H  20)          118.6551         0.353066   
     94. A(C   3,C   5,C   4)          122.9496         0.432052   
     95. A(C  12,C   6,C  13)          121.4454         0.398967   
     96. A(C   7,C   6,C  13)          117.6216         0.433197   
     97. A(C   7,C   6,C  12)          120.9264         0.399505   
     98. A(C   6,C   7,H  21)          119.1145         0.353929   
     99. A(C   2,C   7,C   6)          122.8228         0.432348   
    100. A(C   2,C   7,H  21)          118.0509         0.352817   
    101. A(O   0,C   8,C  15)          116.2586         0.431773   
    102. A(C   2,C   8,C  15)          119.6343         0.429188   
    103. A(O   0,C   8,C   2)          124.1041         0.427838   
    104. A(C  14,C   9,H  22)          119.4396         0.355894   
    105. A(C   3,C   9,C  14)          120.7381         0.434200   
    106. A(C   3,C   9,H  22)          119.8133         0.353199   
    107. A(O   1,C  10,C   4)          122.7977         0.425351   
    108. A(O   1,C  10,C  14)          116.7767         0.428659   
    109. A(C   4,C  10,C  14)          120.3988         0.430805   
    110. A(H  23,C  11,H  24)          106.1600         0.289710   
    111. A(C  16,C  11,H  24)          108.3950         0.328621   
    112. A(C   4,C  11,H  24)          107.5323         0.326321   
    113. A(C  16,C  11,H  23)          109.2207         0.328360   
    114. A(C   4,C  11,H  23)          110.5062         0.326063   
    115. A(C   4,C  11,C  16)          114.6508         0.372020   
    116. A(C   6,C  12,C  17)          113.6672         0.371989   
    117. A(H  25,C  12,H  26)          106.4642         0.289064   
    118. A(C  17,C  12,H  26)          108.8959         0.328371   
    119. A(C   6,C  12,H  26)          108.2291         0.325526   
    120. A(C   6,C  12,H  25)          110.2246         0.325520   
    121. A(C  17,C  12,H  25)          109.0987         0.328365   
    122. A(C  15,C  13,H  27)          119.2490         0.355308   
    123. A(C   6,C  13,H  27)          119.6761         0.353572   
    124. A(C   6,C  13,C  15)          121.0748         0.434856   
    125. A(C   9,C  14,H  28)          120.7742         0.356069   
    126. A(C   9,C  14,C  10)          120.5076         0.435939   
    127. A(C  10,C  14,H  28)          118.7181         0.354704   
    128. A(C  13,C  15,H  29)          121.0833         0.355717   
    129. A(C   8,C  15,H  29)          118.2376         0.354185   
    130. A(C   8,C  15,C  13)          120.6773         0.435126   
    131. A(C  18,C  16,H  30)          119.3092         0.367337   
    132. A(C  11,C  16,H  30)          116.0401         0.329650   
    133. A(C  11,C  16,C  18)          124.6507         0.419514   
    134. A(C  12,C  17,C  19)          125.2438         0.420626   
    135. A(C  19,C  17,H  31)          119.2082         0.368042   
    136. A(C  12,C  17,H  31)          115.5471         0.329981   
    137. A(H  34,C  18,H  35)          117.0454         0.292960   
    138. A(C  16,C  18,H  35)          121.4389         0.367990   
    139. A(C  16,C  18,H  34)          121.5054         0.368466   
    140. A(H  36,C  19,H  37)          116.7632         0.292908   
    141. A(C  17,C  19,H  36)          121.6730         0.368937   
    142. A(C  17,C  19,H  37)          121.5630         0.368711   
    143. A(C  14,H  28,H  47)          107.5474         0.115626   
    144. A(O   0,H  32,O  45)          143.3354         0.173458   
    145. A(H  38,C  40,C  43)          113.5687         0.323165   
    146. A(C  43,C  40,O  44)          103.3036         0.373491   
    147. A(O  44,C  40,H  46)          107.9742         0.334949   
    148. A(C  43,C  40,H  46)          113.3360         0.323429   
    149. A(H  38,C  40,H  46)          109.9454         0.291441   
    150. A(H  38,C  40,O  44)          108.2517         0.334672   
    151. A(C  42,O  41,C  43)          110.3509         0.412009   
    152. A(O  44,C  42,O  45)          123.6914         0.483052   
    153. A(O  41,C  42,O  45)          125.1909         0.485145   
    154. A(O  41,C  42,O  44)          111.1137         0.437806   
    155. A(H  39,C  43,O  41)          108.1228         0.334368   
    156. A(O  41,C  43,H  47)          108.3535         0.334213   
    157. A(C  40,C  43,H  47)          112.4231         0.323093   
    158. A(H  39,C  43,H  47)          110.2415         0.291216   
    159. A(C  40,C  43,O  41)          103.8011         0.373047   
    160. A(H  39,C  43,C  40)          113.5018         0.323241   
    161. A(C  42,O  44,C  52)          109.7154         0.152692   
    162. A(C  49,O  44,C  53)           41.2339         0.104277   
    163. A(O  51,O  44,C  53)           25.3079         0.104249   
    164. A(C  40,O  44,C  52)          139.0883         0.148074   
    165. A(C  42,O  44,C  53)          123.1876         0.154033   
    166. A(C  40,O  44,C  53)          123.0226         0.149318   
    167. A(C  49,O  44,O  51)           25.3634         0.108112   
    168. A(C  42,O  44,C  49)          146.1825         0.170507   
    169. A(C  40,O  44,C  49)           98.6862         0.164597   
    170. A(C  42,O  44,O  51)          148.4374         0.170357   
    171. A(C  40,O  44,O  51)           99.6077         0.164458   
    172. A(O  50,O  44,C  52)           24.5186         0.100293   
    173. A(C  40,O  44,C  42)          110.7579         0.410805   
    174. A(O  50,O  44,C  53)           40.3601         0.100531   
    175. A(C  49,O  44,O  50)           23.4320         0.103451   
    176. A(O  50,O  44,O  51)           39.9197         0.103425   
    177. A(C  42,O  44,O  50)          122.7829         0.150517   
    178. A(C  40,O  44,O  50)          119.5589         0.146057   
    179. A(C  52,O  44,C  53)           26.2557         0.100938   
    180. A(C  49,O  44,C  52)           40.9741         0.103962   
    181. A(O  51,O  44,C  52)           42.1155         0.103935   
    182. A(H  32,O  45,C  42)          138.6514         0.207012   
    183. A(O   1,H  47,H  28)           54.0443         0.095217   
    184. A(H  28,H  47,C  43)          119.6612         0.115466   
    185. A(O   1,H  47,C  43)          129.3106         0.136470   
    186. A(O  44,C  49,O  51)           75.7471         0.170475   
    187. A(O  44,C  49,O  50)           90.7976         0.170573   
    188. A(O  44,C  49,O  48)          101.8738         0.181673   
    189. A(O  50,C  49,O  51)          110.9159         0.436107   
    190. A(O  48,C  49,O  51)          124.4736         0.483343   
    191. A(O  48,C  49,O  50)          124.6104         0.483813   
    192. A(C  49,O  50,C  52)          110.0695         0.411178   
    193. A(O  44,O  50,C  52)           77.6763         0.146077   
    194. A(O  44,O  50,C  49)           65.7704         0.150567   
    195. A(O  44,O  51,C  53)           89.4720         0.164578   
    196. A(O  44,O  51,C  49)           78.8896         0.170326   
    197. A(C  49,O  51,C  53)          110.2290         0.411191   
    198. A(O  44,C  52,H  54)           55.9470         0.137634   
    199. A(O  44,C  52,C  53)           75.9603         0.145481   
    200. A(O  44,C  52,O  50)           77.8051         0.148095   
    201. A(H  54,C  52,H  56)          110.2413         0.291560   
    202. A(C  53,C  52,H  56)          113.5012         0.324243   
    203. A(O  50,C  52,H  56)          108.4038         0.335130   
    204. A(C  53,C  52,H  54)          112.7021         0.323938   
    205. A(O  50,C  52,H  54)          108.4173         0.334810   
    206. A(O  50,C  52,C  53)          103.1509         0.374472   
    207. A(O  44,C  52,H  56)          166.1557         0.137697   
    208. A(O  44,C  53,H  57)           65.6624         0.138709   
    209. A(O  44,C  53,H  55)          168.6053         0.138614   
    210. A(O  44,C  53,C  52)           77.7840         0.146670   
    211. A(O  44,C  53,O  51)           65.2201         0.149414   
    212. A(H  55,C  53,H  57)          109.9147         0.291329   
    213. A(C  52,C  53,H  57)          112.7923         0.324181   
    214. A(O  51,C  53,H  57)          108.5581         0.335368   
    215. A(C  52,C  53,H  55)          113.3646         0.323732   
    216. A(O  51,C  53,H  55)          108.2539         0.334898   
    217. A(O  51,C  53,C  52)          103.5857         0.374825   
    218. D(C   9,C   3,C   2,C   7)    121.5445         0.013159   
    219. D(C   9,C   3,C   2,C   8)    -58.5357         0.013159   
    220. D(C   5,C   3,C   2,C   7)    -56.8877         0.013159   
    221. D(C   5,C   3,C   2,C   8)    123.0321         0.013159   
    222. D(C   4,C   5,C   3,C   9)      1.5398         0.025566   
    223. D(H  20,C   5,C   4,C  11)     -1.4888         0.026199   
    224. D(H  20,C   5,C   3,C   2)     -1.4835         0.025566   
    225. D(C   4,C   5,C   3,C   2)   -179.9706         0.025566   
    226. D(C   3,C   5,C   4,C  11)    177.0023         0.026199   
    227. D(H  20,C   5,C   4,C  10)   -179.2469         0.026199   
    228. D(H  20,C   5,C   3,C   9)   -179.9731         0.025566   
    229. D(C   3,C   5,C   4,C  10)     -0.7558         0.026199   
    230. D(H  21,C   7,C   2,C   3)     -0.2097         0.025480   
    231. D(C   6,C   7,C   2,C   8)      1.1256         0.025480   
    232. D(H  21,C   7,C   2,C   8)    179.8676         0.025480   
    233. D(C   6,C   7,C   2,C   3)   -178.9516         0.025480   
    234. D(C   2,C   7,C   6,C  12)    178.5440         0.026502   
    235. D(H  21,C   7,C   6,C  12)     -0.1852         0.026502   
    236. D(C   2,C   7,C   6,C  13)     -0.5334         0.026502   
    237. D(H  21,C   7,C   6,C  13)   -179.2626         0.026502   
    238. D(C  15,C   8,C   2,C   7)     -0.9557         0.023588   
    239. D(C  15,C   8,O   0,H  32)    171.4040         0.029001   
    240. D(C  15,C   8,C   2,C   3)    179.1230         0.023588   
    241. D(O   0,C   8,C   2,C   3)     -1.5374         0.023588   
    242. D(O   0,C   8,C   2,C   7)    178.3839         0.023588   
    243. D(C   2,C   8,O   0,H  32)     -7.9559         0.029001   
    244. D(C  14,C   9,C   3,C   2)   -179.0584         0.025413   
    245. D(C  14,C   9,C   3,C   5)     -0.5787         0.025413   
    246. D(H  22,C   9,C   3,C   2)     -0.1556         0.025413   
    247. D(H  22,C   9,C   3,C   5)    178.3241         0.025413   
    248. D(C   4,C  10,O   1,H  33)     18.4740         0.028938   
    249. D(C  14,C  10,C   4,C  11)   -178.7200         0.024311   
    250. D(O   1,C  10,C   4,C  11)     -0.6662         0.024311   
    251. D(C  14,C  10,C   4,C   5)     -1.0015         0.024311   
    252. D(C  14,C  10,O   1,H  33)   -163.4061         0.028938   
    253. D(C  14,C  10,O   1,H  47)     44.7389         0.028938   
    254. D(C   4,C  10,O   1,H  47)   -133.3809         0.028938   
    255. D(O   1,C  10,C   4,C   5)    177.0524         0.024311   
    256. D(H  23,C  11,C   4,C  10)     70.2327         0.011410   
    257. D(H  24,C  11,C   4,C   5)      8.0267         0.011410   
    258. D(C  16,C  11,C   4,C   5)    128.6307         0.011410   
    259. D(H  23,C  11,C   4,C   5)   -107.4270         0.011410   
    260. D(C  16,C  11,C   4,C  10)    -53.7096         0.011410   
    261. D(H  26,C  12,C   6,C   7)   -178.2882         0.011295   
    262. D(H  25,C  12,C   6,C   7)    -62.2269         0.011295   
    263. D(H  25,C  12,C   6,C  13)    116.8150         0.011295   
    264. D(C  17,C  12,C   6,C   7)     60.6060         0.011295   
    265. D(C  17,C  12,C   6,C  13)   -120.3522         0.011295   
    266. D(H  27,C  13,C   6,C   7)    179.7285         0.026075   
    267. D(H  27,C  13,C   6,C  12)      0.6562         0.026075   
    268. D(C  15,C  13,C   6,C   7)     -0.2318         0.026075   
    269. D(C  15,C  13,C   6,C  12)   -179.3042         0.026075   
    270. D(H  28,C  14,C  10,C   4)   -178.1153         0.026636   
    271. D(H  28,C  14,C   9,H  22)      0.0241         0.027949   
    272. D(H  28,C  14,C  10,O   1)      3.7170         0.026636   
    273. D(C  10,C  14,C   9,C   3)     -1.1258         0.027949   
    274. D(C  10,C  14,C   9,H  22)    179.9674         0.027949   
    275. D(C   9,C  14,C  10,C   4)      1.9403         0.026636   
    276. D(C   9,C  14,C  10,O   1)   -176.2274         0.026636   
    277. D(H  28,C  14,C   9,C   3)    178.9310         0.027949   
    278. D(H  29,C  15,C   8,O   0)      0.3806         0.026266   
    279. D(C  13,C  15,C   8,C   2)      0.2394         0.026266   
    280. D(C  13,C  15,C   8,O   0)   -179.1509         0.026266   
    281. D(H  29,C  15,C  13,H  27)      0.8938         0.027725   
    282. D(H  29,C  15,C  13,C   6)   -179.1457         0.027725   
    283. D(C   8,C  15,C  13,H  27)   -179.5882         0.027725   
    284. D(C   8,C  15,C  13,C   6)      0.3723         0.027725   
    285. D(H  29,C  15,C   8,C   2)    179.7708         0.026266   
    286. D(H  30,C  16,C  11,H  23)   -178.0126         0.012378   
    287. D(H  30,C  16,C  11,C   4)    -53.3890         0.012378   
    288. D(C  18,C  16,C  11,H  24)   -113.2594         0.012378   
    289. D(C  18,C  16,C  11,H  23)      1.9905         0.012378   
    290. D(C  18,C  16,C  11,C   4)    126.6141         0.012378   
    291. D(H  31,C  17,C  12,H  25)   -179.9879         0.012495   
    292. D(H  31,C  17,C  12,C   6)     56.5631         0.012495   
    293. D(C  19,C  17,C  12,H  26)    116.1779         0.012495   
    294. D(C  19,C  17,C  12,H  25)      0.3588         0.012495   
    295. D(C  19,C  17,C  12,C   6)   -123.0902         0.012495   
    296. D(H  35,C  18,C  16,C  11)      0.4788         0.043407   
    297. D(H  34,C  18,C  16,H  30)     -0.7195         0.043407   
    298. D(H  35,C  18,C  16,H  30)   -179.5180         0.043407   
    299. D(H  34,C  18,C  16,C  11)    179.2773         0.043407   
    300. D(H  37,C  19,C  17,H  31)   -179.6801         0.044373   
    301. D(H  37,C  19,C  17,C  12)     -0.0384         0.044373   
    302. D(H  36,C  19,C  17,H  31)      0.6480         0.044373   
    303. D(H  36,C  19,C  17,C  12)   -179.7104         0.044373   
    304. D(H  47,H  28,C  14,C  10)    -50.8569         0.117740   
    305. D(H  47,H  28,C  14,C   9)    129.0873         0.117740   
    306. D(O  45,H  32,O   0,C   8)   -158.5071         0.278683   
    307. D(O  45,C  42,O  41,C  43)   -175.0124         0.039597   
    308. D(O  44,C  42,O  41,C  43)      5.6900         0.039597   
    309. D(H  47,C  43,O  41,C  42)    111.5318         0.018346   
    310. D(O  41,C  43,C  40,H  46)    124.0240         0.010617   
    311. D(O  41,C  43,C  40,O  44)      7.4496         0.010617   
    312. D(O  41,C  43,C  40,H  38)   -109.5683         0.010617   
    313. D(H  39,C  43,C  40,H  46)   -118.8407         0.010617   
    314. D(H  39,C  43,O  41,C  42)   -128.9877         0.018346   
    315. D(H  39,C  43,C  40,O  44)    124.5849         0.010617   
    316. D(C  40,C  43,O  41,C  42)     -8.1596         0.018346   
    317. D(H  39,C  43,C  40,H  38)      7.5670         0.010617   
    318. D(O  50,O  44,C  42,O  41)   -150.9955         0.052905   
    319. D(C  52,O  44,C  42,O  45)      6.4434         0.052905   
    320. D(C  52,O  44,C  42,O  41)   -174.2465         0.052905   
    321. D(C  53,O  44,C  42,O  41)    160.4385         0.052905   
    322. D(C  49,O  44,C  42,O  45)     31.4707         0.052905   
    323. D(C  49,O  44,C  42,O  41)   -149.2192         0.052905   
    324. D(O  51,O  44,C  42,O  45)    -16.3250         0.052905   
    325. D(O  51,O  44,C  42,O  41)    162.9851         0.052905   
    326. D(C  40,O  44,C  42,O  45)   -179.6591         0.052905   
    327. D(C  40,O  44,C  42,O  41)     -0.3490         0.052905   
    328. D(C  49,O  44,C  40,C  43)    158.4558         0.025845   
    329. D(C  49,O  44,C  40,H  38)    -80.8391         0.025845   
    330. D(O  51,O  44,C  40,H  46)     63.8270         0.025845   
    331. D(O  51,O  44,C  40,C  43)   -175.8653         0.025845   
    332. D(C  49,O  44,C  40,H  46)     38.1481         0.025845   
    333. D(O  51,O  44,C  40,H  38)    -55.1602         0.025845   
    334. D(C  42,O  44,C  40,H  46)   -124.9303         0.025845   
    335. D(C  53,O  44,C  42,O  45)    -18.8717         0.052905   
    336. D(C  42,O  44,C  40,C  43)     -4.6227         0.025845   
    337. D(C  53,O  44,C  40,C  43)   -165.4475         0.025845   
    338. D(C  42,O  44,C  40,H  38)    116.0824         0.025845   
    339. D(C  53,O  44,C  40,H  38)    -44.7424         0.025845   
    340. D(H  32,O  45,C  42,O  44)   -111.7950         0.134848   
    341. D(H  32,O  45,C  42,O  41)     68.9925         0.134848   
    342. D(C  42,O  45,H  32,O   0)   -162.4628         0.001519   
    343. D(C  43,H  47,O   1,H  33)    -80.7090         0.001500   
    344. D(C  43,H  47,O   1,C  10)     58.6158         0.001500   
    345. D(H  28,H  47,C  43,O  41)    -10.1032         0.143797   
    346. D(H  28,H  47,C  43,C  40)    104.0257         0.143797   
    347. D(H  28,H  47,C  43,H  39)   -128.2435         0.143797   
    348. D(O   1,H  47,C  43,O  41)    -76.0863         0.143797   
    349. D(O   1,H  47,C  43,C  40)     38.0426         0.143797   
    350. D(O   1,H  47,C  43,H  39)    165.7734         0.143797   
    351. D(O   1,H  47,H  28,C  14)     51.7595         0.001500   
    352. D(C  43,H  47,H  28,C  14)    -67.4213         0.001500   
    353. D(H  28,H  47,O   1,H  33)    177.9753         0.001500   
    354. D(H  28,H  47,O   1,C  10)    -42.6999         0.001500   
    355. D(O  51,C  49,O  44,C  42)   -115.1550         0.001500   
    356. D(O  51,C  49,O  44,C  40)     94.1217         0.001500   
    357. D(O  50,C  49,O  44,C  52)     33.6407         0.001500   
    358. D(O  50,C  49,O  44,C  53)     74.0603         0.001500   
    359. D(O  50,C  49,O  44,O  51)    111.3975         0.001500   
    360. D(O  50,C  49,O  44,C  42)     -3.7575         0.001500   
    361. D(O  50,C  49,O  44,C  40)   -154.4808         0.001500   
    362. D(O  48,C  49,O  44,O  50)    125.6897         0.001500   
    363. D(O  48,C  49,O  44,C  52)    159.3304         0.001500   
    364. D(O  48,C  49,O  44,C  53)   -160.2500         0.001500   
    365. D(O  48,C  49,O  44,O  51)   -122.9129         0.001500   
    366. D(O  48,C  49,O  44,C  42)    121.9321         0.001500   
    367. D(O  48,C  49,O  44,C  40)    -28.7911         0.001500   
    368. D(O  44,O  50,C  49,O  51)     75.0322         0.048615   
    369. D(O  44,O  50,C  49,O  48)   -105.0481         0.048615   
    370. D(C  52,O  50,C  49,O  44)    -65.5686         0.048615   
    371. D(C  52,O  50,C  49,O  51)      9.4636         0.048615   
    372. D(C  52,O  50,C  49,O  48)   -170.6167         0.048615   
    373. D(C  52,O  50,O  44,C  53)     40.7628         0.001500   
    374. D(C  52,O  50,O  44,C  49)    118.9146         0.001500   
    375. D(C  52,O  50,O  44,O  51)     80.4880         0.001500   
    376. D(C  52,O  50,O  44,C  42)    -63.5719         0.001500   
    377. D(C  52,O  50,O  44,C  40)    148.2284         0.001500   
    378. D(C  49,O  50,O  44,C  52)   -118.9146         0.001500   
    379. D(C  49,O  50,O  44,C  53)    -78.1518         0.001500   
    380. D(C  49,O  50,O  44,O  51)    -38.4265         0.001500   
    381. D(C  49,O  50,O  44,C  42)    177.5136         0.001500   
    382. D(C  49,O  50,O  44,C  40)     29.3138         0.001500   
    383. D(O  44,O  51,C  49,O  50)    -85.3133         0.043021   
    384. D(O  44,O  51,C  49,O  48)     94.7669         0.043021   
    385. D(C  53,O  51,C  49,O  44)     85.2749         0.043021   
    386. D(C  53,O  51,C  49,O  50)     -0.0384         0.043021   
    387. D(C  53,O  51,C  49,O  48)   -179.9583         0.043021   
    388. D(C  53,O  51,O  44,O  50)    -75.5067         0.001500   
    389. D(C  53,O  51,O  44,C  52)    -37.8956         0.001500   
    390. D(C  53,O  51,O  44,C  49)   -110.7445         0.001500   
    391. D(C  53,O  51,O  44,C  42)     -4.9903         0.001500   
    392. D(C  53,O  51,O  44,C  40)    159.2270         0.001500   
    393. D(C  49,O  51,O  44,O  50)     35.2378         0.001500   
    394. D(C  49,O  51,O  44,C  52)     72.8489         0.001500   
    395. D(C  49,O  51,O  44,C  53)    110.7445         0.001500   
    396. D(C  49,O  51,O  44,C  42)    105.7542         0.001500   
    397. D(C  49,O  51,O  44,C  40)    -90.0284         0.001500   
    398. D(H  56,C  52,O  50,O  44)    167.1619         0.022537   
    399. D(H  56,C  52,O  50,C  49)   -134.6442         0.022537   
    400. D(H  54,C  52,O  50,O  44)     47.4854         0.022537   
    401. D(H  54,C  52,O  50,C  49)    105.6793         0.022537   
    402. D(C  53,C  52,O  50,O  44)    -72.2194         0.022537   
    403. D(C  53,C  52,O  50,C  49)    -14.0256         0.022537   
    404. D(H  54,C  52,O  44,C  42)      4.4693         0.001500   
    405. D(H  54,C  52,O  44,C  40)   -166.8001         0.001500   
    406. D(C  53,C  52,O  44,O  50)    107.0963         0.001500   
    407. D(C  53,C  52,O  44,C  49)     75.0334         0.001500   
    408. D(C  53,C  52,O  44,O  51)     36.4088         0.001500   
    409. D(C  53,C  52,O  44,C  42)   -126.0097         0.001500   
    410. D(C  53,C  52,O  44,C  40)     62.7209         0.001500   
    411. D(O  50,C  52,O  44,C  53)   -107.0963         0.001500   
    412. D(O  50,C  52,O  44,C  49)    -32.0630         0.001500   
    413. D(O  50,C  52,O  44,O  51)    -70.6875         0.001500   
    414. D(O  50,C  52,O  44,C  42)    126.8939         0.001500   
    415. D(O  44,C  52,O  50,C  49)     58.1938         0.022537   
    416. D(O  50,C  52,O  44,C  40)    -44.3755         0.001500   
    417. D(H  55,C  53,C  52,O  44)   -177.5210         0.012166   
    418. D(H  55,C  53,C  52,H  56)     13.1713         0.012166   
    419. D(H  55,C  53,C  52,O  50)   -103.9026         0.012166   
    420. D(O  51,C  53,C  52,O  44)    -60.4286         0.012166   
    421. D(O  51,C  53,C  52,H  56)    130.2637         0.012166   
    422. D(O  51,C  53,C  52,O  50)     13.1899         0.012166   
    423. D(H  57,C  53,O  51,O  44)    -50.6700         0.020250   
    424. D(H  57,C  53,O  51,C  49)   -128.6196         0.020250   
    425. D(H  55,C  53,O  51,C  49)    112.1007         0.020250   
    426. D(C  52,C  53,O  51,O  44)     69.4316         0.020250   
    427. D(C  52,C  53,O  51,C  49)     -8.5180         0.020250   
    428. D(H  55,C  53,O  44,C  42)   -126.0993         0.001500   
    429. D(H  55,C  53,O  44,C  40)     32.3700         0.001500   
    430. D(C  52,C  53,O  44,O  50)    -37.7708         0.001500   
    431. D(H  55,C  53,O  51,O  44)   -169.9497         0.020250   
    432. D(C  52,C  53,O  44,C  49)    -73.9599         0.001500   
    433. D(C  52,C  53,O  44,O  51)   -111.3866         0.001500   
    434. D(C  52,C  53,O  44,C  42)     65.4946         0.001500   
    435. D(O  51,C  53,C  52,H  54)   -103.5177         0.012166   
    436. D(C  52,C  53,O  44,C  40)   -136.0361         0.001500   
    437. D(O  51,C  53,O  44,O  50)     73.6159         0.001500   
    438. D(O  51,C  53,O  44,C  52)    111.3866         0.001500   
    439. D(H  55,C  53,C  52,H  54)    139.3898         0.012166   
    440. D(O  51,C  53,O  44,C  49)     37.4267         0.001500   
    441. D(O  51,C  53,O  44,C  42)    176.8812         0.001500   
    442. D(O  51,C  53,O  44,C  40)    -24.6494         0.001500   
    -----------------------------------------------------------------

Number of atoms                         .... 58
Number of degrees of freedom            .... 442


         *************************************************************
         *                GEOMETRY OPTIMIZATION CYCLE   1            *
         *************************************************************
---------------------------------
CARTESIAN COORDINATES (ANGSTROEM)
---------------------------------
  O      1.467314    1.977229    2.207143
  O     -3.955059   -1.256210    2.078415
  C      1.229850    0.312659    0.433924
  C     -0.132756   -0.107221    0.852445
  C     -2.505581   -0.410464    0.312066
  C     -1.210024   -0.029390   -0.033881
  C      3.113779    0.054778   -1.111027
  C      1.832195   -0.278529   -0.680093
  C      1.948100    1.302978    1.130149
  C     -0.377589   -0.622136    2.128858
  C     -2.715152   -0.906707    1.608281
  C     -3.644074   -0.237473   -0.675597
  C      3.739519   -0.638596   -2.308387
  C      3.804234    1.030494   -0.392475
  C     -1.650661   -1.027240    2.496978
  C      3.230751    1.648643    0.708522
  C     -4.474801   -1.472999   -0.898926
  C      2.968066   -0.451002   -3.585961
  C     -5.798751   -1.526441   -0.778160
  C      2.492288   -1.431295   -4.344726
  H     -1.037655    0.367105   -1.028144
  H      1.277928   -1.043144   -1.214074
  H      0.437832   -0.723271    2.834080
  H     -4.296905    0.584683   -0.367752
  H     -3.207834    0.062188   -1.631597
  H      3.849839   -1.710219   -2.110403
  H      4.751537   -0.242110   -2.443643
  H      4.806293    1.312550   -0.696281
  H     -1.837463   -1.441811    3.478817
  H      3.761236    2.415767    1.258141
  H     -3.928948   -2.371366   -1.177804
  H      2.797417    0.580721   -3.883456
  H      0.530308    1.798029    2.379346
  H     -4.567176   -1.388803    1.337214
  H     -6.347217   -2.441571   -0.962399
  H     -6.378217   -0.649734   -0.509332
  H      1.946868   -1.229573   -5.258806
  H      2.635738   -2.473407   -4.081568
  H     -5.191651    2.715839    4.298618
  H     -4.225596    1.172677    5.877827
  C     -4.587080    1.936956    3.836546
  O     -2.510173    1.352698    4.753999
  C     -2.309034    2.194107    3.727422
  C     -3.905492    1.004956    4.851068
  O     -3.478476    2.564671    3.166602
  O     -1.241727    2.584065    3.354937
  H     -5.173341    1.406103    3.090075
  H     -4.015974   -0.046484    4.588856
  O     -5.776613    2.589470    0.479950
  C     -4.925090    3.421911    0.573039
  O     -3.760162    3.404615   -0.104802
  O     -5.002172    4.507453    1.370756
  C     -2.880124    4.425240    0.399659
  C     -3.811673    5.303047    1.243880
  H     -2.102432    3.946644    0.992342
  H     -4.078437    6.241533    0.758588
  H     -2.440423    4.947970   -0.446008
  H     -3.418776    5.499074    2.238683

----------------------------
CARTESIAN COORDINATES (A.U.)
----------------------------
  NO LB      ZA    FRAG     MASS         X           Y           Z
   0 O     8.0000    0    15.999    2.772821    3.736422    4.170896
   1 O     8.0000    0    15.999   -7.473978   -2.373893    3.927636
   2 C     6.0000    0    12.011    2.324080    0.590840    0.819998
   3 C     6.0000    0    12.011   -0.250873   -0.202619    1.610888
   4 C     6.0000    0    12.011   -4.734861   -0.775665    0.589719
   5 C     6.0000    0    12.011   -2.286614   -0.055539   -0.064025
   6 C     6.0000    0    12.011    5.884189    0.103516   -2.099536
   7 C     6.0000    0    12.011    3.462348   -0.526344   -1.285190
   8 C     6.0000    0    12.011    3.681375    2.462272    2.135672
   9 C     6.0000    0    12.011   -0.713539   -1.175667    4.022958
  10 C     6.0000    0    12.011   -5.130894   -1.713427    3.039211
  11 C     6.0000    0    12.011   -6.886302   -0.448758   -1.276694
  12 C     6.0000    0    12.011    7.066667   -1.206772   -4.362220
  13 C     6.0000    0    12.011    7.188961    1.947352   -0.741671
  14 C     6.0000    0    12.011   -3.119298   -1.941202    4.718604
  15 C     6.0000    0    12.011    6.105235    3.115484    1.338913
  16 C     6.0000    0    12.011   -8.456149   -2.783565   -1.698723
  17 C     6.0000    0    12.011    5.608832   -0.852270   -6.776484
  18 C     6.0000    0    12.011  -10.958052   -2.884556   -1.470509
  19 C     6.0000    0    12.011    4.709742   -2.704756   -8.210342
  20 H     1.0000    0     1.008   -1.960885    0.693727   -1.942910
  21 H     1.0000    0     1.008    2.414933   -1.971256   -2.294268
  22 H     1.0000    0     1.008    0.827382   -1.366784    5.355635
  23 H     1.0000    0     1.008   -8.119973    1.104890   -0.694951
  24 H     1.0000    0     1.008   -6.061928    0.117518   -3.083271
  25 H     1.0000    0     1.008    7.275141   -3.231846   -3.988083
  26 H     1.0000    0     1.008    8.979103   -0.457522   -4.617816
  27 H     1.0000    0     1.008    9.082578    2.480360   -1.315780
  28 H     1.0000    0     1.008   -3.472302   -2.724629    6.574012
  29 H     1.0000    0     1.008    7.107707    4.565137    2.377543
  30 H     1.0000    0     1.008   -7.424636   -4.481233   -2.225726
  31 H     1.0000    0     1.008    5.286352    1.097404   -7.338668
  32 H     1.0000    0     1.008    1.002137    3.397783    4.496312
  33 H     1.0000    0     1.008   -8.630712   -2.624457    2.526968
  34 H     1.0000    0     1.008  -11.994502   -4.613901   -1.818671
  35 H     1.0000    0     1.008  -12.053083   -1.227819   -0.962498
  36 H     1.0000    0     1.008    3.679047   -2.323555   -9.937702
  37 H     1.0000    0     1.008    4.980822   -4.674062   -7.713045
  38 H     1.0000    0     1.008   -9.810798    5.132191    8.123211
  39 H     1.0000    0     1.008   -7.985220    2.216039   11.107484
  40 C     6.0000    0    12.011   -8.668325    3.660317    7.250021
  41 O     8.0000    0    15.999   -4.743539    2.556229    8.983756
  42 C     6.0000    0    12.011   -4.363441    4.146262    7.043807
  43 C     6.0000    0    12.011   -7.380311    1.899092    9.167189
  44 O     8.0000    0    15.999   -6.573367    4.846526    5.984011
  45 O     8.0000    0    15.999   -2.346525    4.883175    6.339913
  46 H     1.0000    0     1.008   -9.776197    2.657150    5.839395
  47 H     1.0000    0     1.008   -7.589092   -0.087842    8.671681
  48 O     8.0000    0    15.999  -10.916217    4.893390    0.906974
  49 C     6.0000    0    12.011   -9.307072    6.466474    1.082887
  50 O     8.0000    0    15.999   -7.105676    6.433791   -0.198046
  51 O     8.0000    0    15.999   -9.452734    8.517853    2.590353
  52 C     6.0000    0    12.011   -5.442646    8.362491    0.755247
  53 C     6.0000    0    12.011   -7.203019   10.021306    2.350592
  54 H     1.0000    0     1.008   -3.973022    7.458075    1.875254
  55 H     1.0000    0     1.008   -7.707129   11.794788    1.433524
  56 H     1.0000    0     1.008   -4.611731    9.350308   -0.842832
  57 H     1.0000    0     1.008   -6.460550   10.391745    4.230499

--------------------------------
INTERNAL COORDINATES (ANGSTROEM)
--------------------------------
 O      0   0   0     0.000000000000     0.00000000     0.00000000
 O      1   0   0     6.314572771149     0.00000000     0.00000000
 C      1   2   0     2.443662758316    63.44593642     0.00000000
 C      3   1   2     1.485986595469    94.42808551     0.11245100
 C      2   1   3     2.436444969935    47.63687221   323.75235658
 C      5   2   1     1.394045516372   145.86138291    25.18546255
 C      3   1   2     2.450012780164   117.03640327   180.21171043
 C      7   3   1     1.392570807901    28.64515458   181.54975164
 C      1   2   3     1.358560142584    91.92526776   359.32118244
 C      4   3   1     1.397965962284   121.45477533   300.75454963
 C      2   1   3     1.371330663272    25.85125238   357.30005854
 C      5   2   1     1.517093193571    93.73280848   209.27339828
 C      7   3   1     1.518549220135   149.55649339   179.08421843
 C      7   3   1     1.394656197863    88.97748965     1.07704843
 C     10   4   3     1.385761602588   120.73811782   180.94157620
 C     14   7   3     1.386790115047   121.07480420   359.51243428
 C     12   5   2     1.505492717688   114.65080597   305.97457393
 C     13   7   3     1.504169785787   113.66720124    61.98348589
 C     17  12   5     1.330520371264   124.65072538   126.61409391
 C     18  13   7     1.327803903794   125.24375054   236.90978674
 H      6   5   2     1.084194700924   118.37857960   183.23780556
 H      8   7   3     1.084888927602   119.11450579   181.27082429
 H     10   4   3     1.082809951813   119.81325381   359.84437959
 H     12   5   2     1.094027502162   110.50621551    69.91688884
 H     12   5   2     1.092719746722   107.53226765   185.37060874
 H     13   7   3     1.095328395569   110.22464444   299.15067984
 H     13   7   3     1.095296987713   108.22907949   183.08928942
 H     14   7   3     1.084424018177   119.67613493   179.47277182
 H     15  10   4     1.082022865163   120.77422594   178.93100486
 H     16  14   7     1.082577496760   121.08334676   180.85426499
 H     17  12   5     1.087562725698   116.04009673   306.61099775
 H     18  13   7     1.087233819192   115.54713505    56.56313117
 H      1   2   3     0.969405276767    22.92081384   157.04962479
 H      2   1   3     0.970385429316   128.84456000   307.92881800
 H     19  17  12     1.082691635602   121.50542558   179.27728966
 H     19  17  12     1.084741563274   121.43892974     0.47884384
 H     20  18  13     1.083382155936   121.67295908   180.28963129
 H     20  18  13     1.084355870274   121.56303492   359.96161851
 H      2   1   3     4.715467324759    77.54103222   204.70313598
 H     39   2   1     2.410084701430    70.36968763   276.37820087
 C     39   2   1     1.088886660386    18.57060995   350.10783965
 O     40  39   2     2.058658632927    85.42943816    62.83445593
 C     42  40  39     1.342492647257   126.66199433     6.34341929
 C     40  39   2     1.088500138121    66.32508273    24.33960190
 O     43  42  40     1.348862889447   111.11366822   336.55167141
 O     43  42  40     1.195806759713   125.19094052   155.84927790
 H     41  39   2     1.087532154625   109.94542149    25.76179635
 H     44  40  39     1.089260222192   110.24148978   229.45264889
 O     24  12   5     2.631978248892   176.88685293     4.44045900
 C     49  24  12     1.194451136879    98.92579952    49.74870507
 O     50  49  24     1.347896532372   124.61036992    23.47753284
 O     50  49  24     1.349331956376   124.47362809   203.38659877
 C     51  50  49     1.438965406195   110.06951521   189.38334406
 C     52  50  49     1.437481145754   110.22896419   180.04174131
 H     53  51  50     1.088637262359   108.41728420   105.67925997
 H     54  52  50     1.089691420980   108.25386165   112.10070631
 H     53  51  50     1.087076717688   108.40384181   225.35577738
 H     54  52  50     1.087396041624   108.55810188   231.38043014

---------------------------
INTERNAL COORDINATES (A.U.)
---------------------------
 O      0   0   0     0.000000000000     0.00000000     0.00000000
 O      1   0   0    11.932813190188     0.00000000     0.00000000
 C      1   2   0     4.617853376880    63.44593642     0.00000000
 C      3   1   2     2.808107704114    94.42808551     0.11245100
 C      2   1   3     4.604213733548    47.63687221   323.75235658
 C      5   2   1     2.634364244164   145.86138291    25.18546255
 C      3   1   2     4.629853179116   117.03640327   180.21171043
 C      7   3   1     2.631577449026    28.64515458   181.54975164
 C      1   2   3     2.567306605945    91.92526776   359.32118244
 C      4   3   1     2.641772813260   121.45477533   300.75454963
 C      2   1   3     2.591439392632    25.85125238   357.30005854
 C      5   2   1     2.866890655484    93.73280848   209.27339828
 C      7   3   1     2.869642146934   149.55649339   179.08421843
 C      7   3   1     2.635518264938    88.97748965     1.07704843
 C     10   4   3     2.618709915795   120.73811782   180.94157620
 C     14   7   3     2.620653522668   121.07480420   359.51243428
 C     12   5   2     2.844968933043   114.65080597   305.97457393
 C     13   7   3     2.842468954057   113.66720124    61.98348589
 C     17  12   5     2.514319117292   124.65072538   126.61409391
 C     18  13   7     2.509185737722   125.24375054   236.90978674
 H      6   5   2     2.048831060596   118.37857960   183.23780556
 H      8   7   3     2.050142958892   119.11450579   181.27082429
 H     10   4   3     2.046214264011   119.81325381   359.84437959
 H     12   5   2     2.067412362063   110.50621551    69.91688884
 H     12   5   2     2.064941062432   107.53226765   185.37060874
 H     13   7   3     2.069870694334   110.22464444   299.15067984
 H     13   7   3     2.069811342086   108.22907949   183.08928942
 H     14   7   3     2.049264407401   119.67613493   179.47277182
 H     15  10   4     2.044726885798   120.77422594   178.93100486
 H     16  14   7     2.045774987623   121.08334676   180.85426499
 H     17  12   5     2.055195705030   116.04009673   306.61099775
 H     18  13   7     2.054574161809   115.54713505    56.56313117
 H      1   2   3     1.831910485868    22.92081384   157.04962479
 H      2   1   3     1.833762705755   128.84456000   307.92881800
 H     19  17  12     2.045990678775   121.50542558   179.27728966
 H     19  17  12     2.049864480669   121.43892974     0.47884384
 H     20  18  13     2.047295573097   121.67295908   180.28963129
 H     20  18  13     2.049135626528   121.56303492   359.96161851
 H      2   1   3     8.910941837248    77.54103222   204.70313598
 H     39   2   1     4.554400045255    70.36968763   276.37820087
 C     39   2   1     2.057697579010    18.57060995   350.10783965
 O     40  39   2     3.890301019465    85.42943816    62.83445593
 C     42  40  39     2.536943440118   126.66199433     6.34341929
 C     40  39   2     2.056967157785    66.32508273    24.33960190
 O     43  42  40     2.548981453264   111.11366822   336.55167141
 O     43  42  40     2.259747284949   125.19094052   155.84927790
 H     41  39   2     2.055137934075   109.94542149    25.76179635
 H     44  40  39     2.058403508516   110.24148978   229.45264889
 O     24  12   5     4.973718080843   176.88685293     4.44045900
 C     49  24  12     2.257185529053    98.92579952    49.74870507
 O     50  49  24     2.547155303046   124.61036992    23.47753284
 O     50  49  24     2.549867861299   124.47362809   203.38659877
 C     51  50  49     2.719250533895   110.06951521   189.38334406
 C     52  50  49     2.716445688150   110.22896419   180.04174131
 H     53  51  50     2.057226285040   108.41728420   105.67925997
 H     54  52  50     2.059218356135   108.25386165   112.10070631
 H     53  51  50     2.054277282993   108.40384181   225.35577738
 H     54  52  50     2.054880717778   108.55810188   231.38043014

---------------------
BASIS SET INFORMATION
---------------------
There are 3 groups of distinct atoms

 Group   1 Type O   : 11s6p2d1f contracted to 5s3p2d1f pattern {62111/411/11/1}
 Group   2 Type C   : 11s6p2d1f contracted to 5s3p2d1f pattern {62111/411/11/1}
 Group   3 Type H   : 5s1p contracted to 3s1p pattern {311/1}

Atom   0O    basis set group =>   1
Atom   1O    basis set group =>   1
Atom   2C    basis set group =>   2
Atom   3C    basis set group =>   2
Atom   4C    basis set group =>   2
Atom   5C    basis set group =>   2
Atom   6C    basis set group =>   2
Atom   7C    basis set group =>   2
Atom   8C    basis set group =>   2
Atom   9C    basis set group =>   2
Atom  10C    basis set group =>   2
Atom  11C    basis set group =>   2
Atom  12C    basis set group =>   2
Atom  13C    basis set group =>   2
Atom  14C    basis set group =>   2
Atom  15C    basis set group =>   2
Atom  16C    basis set group =>   2
Atom  17C    basis set group =>   2
Atom  18C    basis set group =>   2
Atom  19C    basis set group =>   2
Atom  20H    basis set group =>   3
Atom  21H    basis set group =>   3
Atom  22H    basis set group =>   3
Atom  23H    basis set group =>   3
Atom  24H    basis set group =>   3
Atom  25H    basis set group =>   3
Atom  26H    basis set group =>   3
Atom  27H    basis set group =>   3
Atom  28H    basis set group =>   3
Atom  29H    basis set group =>   3
Atom  30H    basis set group =>   3
Atom  31H    basis set group =>   3
Atom  32H    basis set group =>   3
Atom  33H    basis set group =>   3
Atom  34H    basis set group =>   3
Atom  35H    basis set group =>   3
Atom  36H    basis set group =>   3
Atom  37H    basis set group =>   3
Atom  38H    basis set group =>   3
Atom  39H    basis set group =>   3
Atom  40C    basis set group =>   2
Atom  41O    basis set group =>   1
Atom  42C    basis set group =>   2
Atom  43C    basis set group =>   2
Atom  44O    basis set group =>   1
Atom  45O    basis set group =>   1
Atom  46H    basis set group =>   3
Atom  47H    basis set group =>   3
Atom  48O    basis set group =>   1
Atom  49C    basis set group =>   2
Atom  50O    basis set group =>   1
Atom  51O    basis set group =>   1
Atom  52C    basis set group =>   2
Atom  53C    basis set group =>   2
Atom  54H    basis set group =>   3
Atom  55H    basis set group =>   3
Atom  56H    basis set group =>   3
Atom  57H    basis set group =>   3
---------------------------------
AUXILIARY/J BASIS SET INFORMATION
---------------------------------
There are 3 groups of distinct atoms

 Group   1 Type O   : 12s5p4d2f1g contracted to 6s4p3d1f1g pattern {711111/2111/211/2/1}
 Group   2 Type C   : 12s5p4d2f1g contracted to 6s4p3d1f1g pattern {711111/2111/211/2/1}
 Group   3 Type H   : 5s2p1d contracted to 3s1p1d pattern {311/2/1}

Atom   0O    basis set group =>   1
Atom   1O    basis set group =>   1
Atom   2C    basis set group =>   2
Atom   3C    basis set group =>   2
Atom   4C    basis set group =>   2
Atom   5C    basis set group =>   2
Atom   6C    basis set group =>   2
Atom   7C    basis set group =>   2
Atom   8C    basis set group =>   2
Atom   9C    basis set group =>   2
Atom  10C    basis set group =>   2
Atom  11C    basis set group =>   2
Atom  12C    basis set group =>   2
Atom  13C    basis set group =>   2
Atom  14C    basis set group =>   2
Atom  15C    basis set group =>   2
Atom  16C    basis set group =>   2
Atom  17C    basis set group =>   2
Atom  18C    basis set group =>   2
Atom  19C    basis set group =>   2
Atom  20H    basis set group =>   3
Atom  21H    basis set group =>   3
Atom  22H    basis set group =>   3
Atom  23H    basis set group =>   3
Atom  24H    basis set group =>   3
Atom  25H    basis set group =>   3
Atom  26H    basis set group =>   3
Atom  27H    basis set group =>   3
Atom  28H    basis set group =>   3
Atom  29H    basis set group =>   3
Atom  30H    basis set group =>   3
Atom  31H    basis set group =>   3
Atom  32H    basis set group =>   3
Atom  33H    basis set group =>   3
Atom  34H    basis set group =>   3
Atom  35H    basis set group =>   3
Atom  36H    basis set group =>   3
Atom  37H    basis set group =>   3
Atom  38H    basis set group =>   3
Atom  39H    basis set group =>   3
Atom  40C    basis set group =>   2
Atom  41O    basis set group =>   1
Atom  42C    basis set group =>   2
Atom  43C    basis set group =>   2
Atom  44O    basis set group =>   1
Atom  45O    basis set group =>   1
Atom  46H    basis set group =>   3
Atom  47H    basis set group =>   3
Atom  48O    basis set group =>   1
Atom  49C    basis set group =>   2
Atom  50O    basis set group =>   1
Atom  51O    basis set group =>   1
Atom  52C    basis set group =>   2
Atom  53C    basis set group =>   2
Atom  54H    basis set group =>   3
Atom  55H    basis set group =>   3
Atom  56H    basis set group =>   3
Atom  57H    basis set group =>   3


           ************************************************************
           *        Program running with 25 parallel MPI-processes    *
           *              working on a common directory               *
           ************************************************************
------------------------------------------------------------------------------
                             ORCA STARTUP CALCULATIONS
                           -- RI-GTO INTEGRALS CHOSEN --
------------------------------------------------------------------------------
------------------------------------------------------------------------------
                   ___                                                        
                  /   \      - P O W E R E D   B Y -                         
                 /     \                                                     
                 |  |  |   _    _      __       _____    __    __             
                 |  |  |  | |  | |    /  \     |  _  \  |  |  /  |          
                  \  \/   | |  | |   /    \    | | | |  |  | /  /          
                 / \  \   | |__| |  /  /\  \   | |_| |  |  |/  /          
                |  |  |   |  __  | /  /__\  \  |    /   |      \           
                |  |  |   | |  | | |   __   |  |    \   |  |\   \          
                \     /   | |  | | |  |  |  |  | |\  \  |  | \   \       
                 \___/    |_|  |_| |__|  |__|  |_| \__\ |__|  \__/        
                                                                              
                      - O R C A' S   B I G   F R I E N D -                    
                                      &                                       
                       - I N T E G R A L  F E E D E R -                       
                                                                              
 v1 FN, 2020, v2 2021, v3 2022-2024                                           
------------------------------------------------------------------------------


----------------------
SHARK INTEGRAL PACKAGE
----------------------

Number of atoms                             ...     58
Number of basis functions                   ...   1148
Number of shells                            ...    456
Maximum angular momentum                    ...      3
Integral batch strategy                     ... SHARK/LIBINT Hybrid
RI-J (if used) integral strategy            ... SPLIT-RIJ (Revised 2003 algorithm where possible)
Printlevel                                  ...      1
Contraction scheme used                     ... SEGMENTED contraction
Prescreening option                         ... SCHWARTZ
   Thresh                                   ... 2.500e-11
   Tcut                                     ... 2.500e-12
   Tpresel                                  ... 2.500e-12 
Coulomb Range Separation                    ... NOT USED
Exchange Range Separation                   ... NOT USED
Multipole approximations                    ... NOT USED
Finite Nucleus Model                        ... NOT USED
CABS basis                                  ... NOT available
Auxiliary Coulomb fitting basis             ... AVAILABLE
   # of basis functions in Aux-J            ...   1854
   # of shells in Aux-J                     ...    610
   Maximum angular momentum in Aux-J        ...      4
Auxiliary J/K fitting basis                 ... NOT available
Auxiliary Correlation fitting basis         ... NOT available
Auxiliary 'external' fitting basis          ... NOT available

Checking pre-screening integrals            ... done (  0.0 sec) Dimension = 456
Check shell pair data                       ... done (  0.0 sec)
Shell pair information
Shell pair cut-off parameter TPreSel        ...   2.5e-12
Total number of shell pairs                 ...    104196
Shell pairs after pre-screening             ...     61447
Total number of primitive shell pairs       ...    317988
Primitive shell pairs kept                  ...    118693
          la=0 lb=0:  16341 shell pairs
          la=1 lb=0:  18220 shell pairs
          la=1 lb=1:   5110 shell pairs
          la=2 lb=0:   8445 shell pairs
          la=2 lb=1:   4841 shell pairs
          la=2 lb=2:   1140 shell pairs
          la=3 lb=0:   3852 shell pairs
          la=3 lb=1:   2271 shell pairs
          la=3 lb=2:    987 shell pairs
          la=3 lb=3:    240 shell pairs

Calculating one electron integrals          ... done (  0.1 sec)
Calculating RI/J V-Matrix + Cholesky decomp.... done (  0.2 sec)
Calculating Nuclear repulsion               ... done (  0.0 sec) ENN=   3299.657923411001 Eh

Diagonalization of the overlap matrix:
Smallest eigenvalue                        ... 5.465e-06
Time for diagonalization                   ...    0.230 sec
Threshold for overlap eigenvalues          ... 1.000e-07
Number of eigenvalues below threshold      ... 0
Time for construction of square roots      ...    0.108 sec
Total time needed                          ...    0.348 sec

-------------------
DFT GRID GENERATION
-------------------

General Integration Accuracy     IntAcc      ... 4.388
Radial Grid Type                 RadialGrid  ... OptM3 with GC (2021)
Angular Grid (max. ang.)         AngularGrid ... 4 (Lebedev-302)
Angular grid pruning method      GridPruning ... 4 (adaptive)
Weight generation scheme         WeightScheme... mBecke (2022)
Basis function cutoff            BFCut       ... 1.0000e-11
Integration weight cutoff        WCut        ... 1.0000e-14
Partially contracted basis set               ... off
Rotationally invariant grid construction     ... off
Angular grids for H and He will be reduced by one unit

Total number of grid points                  ...   273959
Total number of batches                      ...     4310
Average number of points per batch           ...       63
Average number of grid points per atom       ...     4723

--------------------
COSX GRID GENERATION
--------------------

GRIDX 1
-------
General Integration Accuracy     IntAcc      ... 3.816
Radial Grid Type                 RadialGrid  ... OptM3 with GC (2021)
Angular Grid (max. ang.)         AngularGrid ... 1 (Lebedev-50)
Angular grid pruning method      GridPruning ... 4 (adaptive)
Weight generation scheme         WeightScheme... mBecke (2022)
Basis function cutoff            BFCut       ... 1.0000e-11
Integration weight cutoff        WCut        ... 1.0000e-14
Partially contracted basis set               ... on
Rotationally invariant grid construction     ... off
Angular grids for H and He will be reduced by one unit

Total number of grid points                  ...    34698
Total number of batches                      ...      308
Average number of points per batch           ...      112
Average number of grid points per atom       ...      598
UseSFitting                                  ... on

GRIDX 2
-------
General Integration Accuracy     IntAcc      ... 4.020
Radial Grid Type                 RadialGrid  ... OptM3 with GC (2021)
Angular Grid (max. ang.)         AngularGrid ... 2 (Lebedev-110)
Angular grid pruning method      GridPruning ... 4 (adaptive)
Weight generation scheme         WeightScheme... mBecke (2022)
Basis function cutoff            BFCut       ... 1.0000e-11
Integration weight cutoff        WCut        ... 1.0000e-14
Partially contracted basis set               ... on
Rotationally invariant grid construction     ... off
Angular grids for H and He will be reduced by one unit

Total number of grid points                  ...    74865
Total number of batches                      ...      619
Average number of points per batch           ...      120
Average number of grid points per atom       ...     1291
UseSFitting                                  ... on

GRIDX 3
-------
General Integration Accuracy     IntAcc      ... 4.338
Radial Grid Type                 RadialGrid  ... OptM3 with GC (2021)
Angular Grid (max. ang.)         AngularGrid ... 3 (Lebedev-194)
Angular grid pruning method      GridPruning ... 4 (adaptive)
Weight generation scheme         WeightScheme... mBecke (2022)
Basis function cutoff            BFCut       ... 1.0000e-11
Integration weight cutoff        WCut        ... 1.0000e-14
Partially contracted basis set               ... on
Rotationally invariant grid construction     ... off
Angular grids for H and He will be reduced by one unit

Total number of grid points                  ...   163342
Total number of batches                      ...     1304
Average number of points per batch           ...      125
Average number of grid points per atom       ...     2816
UseSFitting                                  ... on
Initializing property integral containers    ... done (  0.0 sec)

SHARK setup successfully completed in   4.5 seconds

Maximum memory used throughout the entire STARTUP-calculation: 127.9 MB


           ************************************************************
           *        Program running with 25 parallel MPI-processes    *
           *              working on a common directory               *
           ************************************************************
-------------------------------------------------------------------------------
                                 ORCA GUESS
                   Start orbitals & Density for SCF / CASSCF
-------------------------------------------------------------------------------

------------
SCF SETTINGS
------------
Hamiltonian:
 Density Functional     Method          .... DFT(GTOs)
 Exchange Functional    Exchange        .... B88
   X-Alpha parameter    XAlpha          ....  0.666667
   Becke's b parameter  XBeta           ....  0.004200
 Correlation Functional Correlation     .... LYP
 LDA part of GGA corr.  LDAOpt          .... VWN-5
 Gradients option       PostSCFGGA      .... off
 Hybrid DFT is turned on
   Fraction HF Exchange ScalHFX         ....  0.200000
   Scaling of DF-GGA-X  ScalDFX         ....  0.720000
   Scaling of DF-GGA-C  ScalDFC         ....  0.810000
   Scaling of DF-LDA-C  ScalLDAC        ....  1.000000
   Perturbative correction              ....  0.000000
[...]
   390. D(C  53,O  51,O  44,C  49)   -110.74  0.000011    0.01   -110.73   
   391. D(C  53,O  51,O  44,C  42)     -4.83 -0.000048    0.27     -4.56   
   392. D(C  53,O  51,O  44,C  40)    159.25 -0.000013    0.05    159.30   
   393. D(C  49,O  51,O  44,O  50)     35.24 -0.000012    0.01     35.25   
   394. D(C  49,O  51,O  44,C  52)     72.85 -0.000003    0.03     72.88   
   395. D(C  49,O  51,O  44,C  53)    110.74 -0.000011   -0.01    110.73   
   396. D(C  49,O  51,O  44,C  42)    105.91 -0.000059    0.26    106.17   
   397. D(C  49,O  51,O  44,C  40)    -90.02 -0.000024    0.04    -89.97   
   398. D(H  56,C  52,O  50,O  44)    167.10  0.000024   -0.12    166.99   
   399. D(H  56,C  52,O  50,C  49)   -134.58 -0.000017    0.11   -134.47   
   400. D(H  54,C  52,O  50,O  44)     47.42  0.000010   -0.12     47.30   
   401. D(H  54,C  52,O  50,C  49)    105.74 -0.000031    0.10    105.84   
   402. D(C  53,C  52,O  50,O  44)    -72.30  0.000017   -0.15    -72.45   
   403. D(C  53,C  52,O  50,C  49)    -13.99 -0.000025    0.08    -13.91   
   404. D(H  54,C  52,O  44,C  42)      4.41  0.000056   -0.12      4.28   
   405. D(H  54,C  52,O  44,C  40)   -166.94  0.000030   -0.25   -167.19   
   406. D(C  53,C  52,O  44,O  50)    107.10 -0.000015    0.00    107.10   
   407. D(C  53,C  52,O  44,C  49)     74.98  0.000013   -0.10     74.89   
   408. D(C  53,C  52,O  44,O  51)     36.36  0.000033   -0.09     36.27   
   409. D(C  53,C  52,O  44,C  42)   -125.93 -0.000017    0.12   -125.81   
   410. D(C  53,C  52,O  44,C  40)     62.72 -0.000043   -0.00     62.71   
   411. D(O  50,C  52,O  44,C  53)   -107.10  0.000015   -0.00   -107.10   
   412. D(O  50,C  52,O  44,C  49)    -32.12  0.000028   -0.10    -32.21   
   413. D(O  50,C  52,O  44,O  51)    -70.73  0.000047   -0.09    -70.82   
   414. D(O  50,C  52,O  44,C  42)    126.97 -0.000003    0.12    127.09   
   415. D(O  44,C  52,O  50,C  49)     58.31 -0.000042    0.23     58.54   
   416. D(O  50,C  52,O  44,C  40)    -44.38 -0.000029   -0.00    -44.38   
   417. D(H  55,C  53,C  52,O  44)   -177.49  0.000023    0.07   -177.42   
   418. D(H  55,C  53,C  52,H  56)     13.12  0.000058   -0.08     13.04   
   419. D(H  55,C  53,C  52,O  50)   -103.92  0.000067   -0.03   -103.95   
   420. D(O  51,C  53,C  52,O  44)    -60.38 -0.000031    0.10    -60.28   
   421. D(O  51,C  53,C  52,H  56)    130.23  0.000005   -0.05    130.18   
   422. D(O  51,C  53,C  52,O  50)     13.19  0.000014   -0.00     13.19   
   423. D(H  57,C  53,O  51,O  44)    -50.79  0.000081   -0.23    -51.03   
   424. D(H  57,C  53,O  51,C  49)   -128.68  0.000017   -0.10   -128.78   
   425. D(H  55,C  53,O  51,C  49)    112.06  0.000028   -0.08    111.97   
   426. D(C  52,C  53,O  51,O  44)     69.33  0.000060   -0.20     69.13   
   427. D(C  52,C  53,O  51,C  49)     -8.55 -0.000004   -0.07     -8.62   
   428. D(H  55,C  53,O  44,C  42)   -126.29  0.000006   -0.46   -126.75   
   429. D(H  55,C  53,O  44,C  40)     32.10  0.000033   -0.58     31.52   
   430. D(C  52,C  53,O  44,O  50)    -37.77 -0.000016   -0.02    -37.79   
   431. D(H  55,C  53,O  51,O  44)   -170.06  0.000092   -0.22   -170.27   
   432. D(C  52,C  53,O  44,C  49)    -73.99  0.000007   -0.07    -74.06   
   433. D(C  52,C  53,O  44,O  51)   -111.43  0.000025   -0.10   -111.53   
   434. D(C  52,C  53,O  44,C  42)     65.54 -0.000002    0.06     65.60   
   435. D(O  51,C  53,C  52,H  54)   -103.59  0.000044   -0.10   -103.69   
   436. D(C  52,C  53,O  44,C  40)   -136.07  0.000026   -0.06   -136.13   
   437. D(O  51,C  53,O  44,O  50)     73.66 -0.000042    0.08     73.74   
   438. D(O  51,C  53,O  44,C  52)    111.43 -0.000025    0.10    111.53   
   439. D(H  55,C  53,C  52,H  54)    139.31  0.000097   -0.13    139.17   
   440. D(O  51,C  53,O  44,C  49)     37.44 -0.000019    0.03     37.47   
   441. D(O  51,C  53,O  44,C  42)    176.97 -0.000027    0.16    177.13   
   442. D(O  51,C  53,O  44,C  40)    -24.64  0.000001    0.04    -24.60   
    ----------------------------------------------------------------------------

Geometry step timings:
Preparation and reading OPT file:      0.001 s ( 2.115 %)
Internal coordinates            :      0.000 s ( 0.127 %)
B/P matrices and projection     :      0.022 s (44.990 %)
Hessian update/contruction      :      0.007 s (13.719 %)
Making the step                 :      0.014 s (29.787 %)
Converting the step to Cartesian:      0.002 s ( 3.188 %)
Storing new data                :      0.000 s ( 0.937 %)
Checking convergence            :      0.000 s ( 0.248 %)
Final printing                  :      0.002 s ( 4.881 %)
Total time                      :      0.048 s

Time for energy+gradient        :     89.035 s
Time for complete geometry iter :     89.650 s

         *************************************************************
         *                GEOMETRY OPTIMIZATION CYCLE   3            *
         *************************************************************
---------------------------------
CARTESIAN COORDINATES (ANGSTROEM)
---------------------------------
  O      1.462250    1.942343    2.248537
  O     -3.970918   -1.263021    2.096511
  C      1.215911    0.302939    0.453556
  C     -0.147375   -0.116755    0.871442
  C     -2.519157   -0.426888    0.330407
  C     -1.224461   -0.043550   -0.015990
  C      3.093335    0.063361   -1.101939
  C      1.811059   -0.270613   -0.673206
  C      1.941718    1.277247    1.164193
  C     -0.393467   -0.625637    2.150047
  C     -2.729382   -0.916562    1.627951
  C     -3.660782   -0.261434   -0.653662
  C      3.706321   -0.603682   -2.318953
  C      3.794412    1.016438   -0.364660
  C     -1.667092   -1.028618    2.519676
  C      3.228194    1.617523    0.748771
  C     -4.457210   -1.516991   -0.901038
  C      2.932556   -0.370020   -3.586509
  C     -5.778966   -1.612102   -0.776058
  C      2.437040   -1.322211   -4.368164
  H     -1.052590    0.349685   -1.011563
  H      1.249529   -1.019053   -1.220945
  H      0.420783   -0.720588    2.857680
  H     -4.336135    0.534200   -0.322921
  H     -3.234285    0.074128   -1.604242
  H      3.802711   -1.681017   -2.151680
  H      4.722838   -0.216785   -2.446676
  H      4.797650    1.297238   -0.665607
  H     -1.855178   -1.433631    3.505943
  H      3.765379    2.371006    1.310634
  H     -3.887551   -2.392393   -1.204387
  H      2.777889    0.672280   -3.856151
  H      0.519750    1.777986    2.406013
  H     -4.578831   -1.403777    1.354290
  H     -6.301772   -2.538065   -0.982062
  H     -6.382387   -0.757880   -0.485465
  H      1.890733   -1.087548   -5.273211
  H      2.563053   -2.373949   -4.132118
  H     -5.169014    2.762045    4.290204
  H     -4.237712    1.209192    5.877163
  C     -4.580790    1.967414    3.832428
  O     -2.515396    1.365072    4.760024
  C     -2.298760    2.191823    3.724192
  C     -3.914458    1.032350    4.853204
  O     -3.460970    2.569337    3.153879
  O     -1.225803    2.566283    3.352293
  H     -5.183811    1.440448    3.097436
  H     -4.033812   -0.019048    4.597442
  O     -5.752728    2.606960    0.457318
  C     -4.884596    3.422720    0.541134
  O     -3.716001    3.370093   -0.129793
  O     -4.945040    4.524021    1.319926
  C     -2.819951    4.384972    0.359292
  C     -3.740121    5.296139    1.183333
  H     -2.051075    3.906195    0.964781
  H     -3.987313    6.231038    0.678162
  H     -2.368365    4.884271   -0.495990
  H     -3.349076    5.504726    2.177054

----------------------------
CARTESIAN COORDINATES (A.U.)
----------------------------
  NO LB      ZA    FRAG     MASS         X           Y           Z
   0 O     8.0000    0    15.999    2.763251    3.670497    4.249120
   1 O     8.0000    0    15.999   -7.503947   -2.386765    3.961832
   2 C     6.0000    0    12.011    2.297740    0.572471    0.857097
   3 C     6.0000    0    12.011   -0.278499   -0.220635    1.646787
   4 C     6.0000    0    12.011   -4.760517   -0.806701    0.624379
   5 C     6.0000    0    12.011   -2.313897   -0.082297   -0.030217
   6 C     6.0000    0    12.011    5.845555    0.119735   -2.082363
   7 C     6.0000    0    12.011    3.422406   -0.511385   -1.272174
   8 C     6.0000    0    12.011    3.669316    2.413647    2.200006
   9 C     6.0000    0    12.011   -0.743544   -1.182282    4.063000
  10 C     6.0000    0    12.011   -5.157784   -1.732051    3.076381
  11 C     6.0000    0    12.011   -6.917875   -0.494038   -1.235243
  12 C     6.0000    0    12.011    7.003933   -1.140794   -4.382186
  13 C     6.0000    0    12.011    7.170399    1.920789   -0.689108
  14 C     6.0000    0    12.011   -3.150347   -1.943807    4.761498
  15 C     6.0000    0    12.011    6.100402    3.056675    1.414973
  16 C     6.0000    0    12.011   -8.422907   -2.866697   -1.702715
  17 C     6.0000    0    12.011    5.541727   -0.699237   -6.777519
  18 C     6.0000    0    12.011  -10.920662   -3.046432   -1.466536
  19 C     6.0000    0    12.011    4.605339   -2.498618   -8.254633
  20 H     1.0000    0     1.008   -1.989108    0.660808   -1.911576
  21 H     1.0000    0     1.008    2.361268   -1.925731   -2.307251
  22 H     1.0000    0     1.008    0.795165   -1.361714    5.400233
  23 H     1.0000    0     1.008   -8.194107    1.009492   -0.610232
  24 H     1.0000    0     1.008   -6.111914    0.140081   -3.031578
  25 H     1.0000    0     1.008    7.186083   -3.176663   -4.066087
  26 H     1.0000    0     1.008    8.924870   -0.409664   -4.623548
  27 H     1.0000    0     1.008    9.066244    2.451425   -1.257815
  28 H     1.0000    0     1.008   -3.505778   -2.709170    6.625273
  29 H     1.0000    0     1.008    7.115536    4.480552    2.476739
  30 H     1.0000    0     1.008   -7.346408   -4.520968   -2.275962
  31 H     1.0000    0     1.008    5.249450    1.270426   -7.287070
  32 H     1.0000    0     1.008    0.982185    3.359907    4.546706
  33 H     1.0000    0     1.008   -8.652737   -2.652754    2.559236
  34 H     1.0000    0     1.008  -11.908623   -4.796248   -1.855828
  35 H     1.0000    0     1.008  -12.060963   -1.432185   -0.917396
  36 H     1.0000    0     1.008    3.572968   -2.055169   -9.964924
  37 H     1.0000    0     1.008    4.843468   -4.486113   -7.808571
  38 H     1.0000    0     1.008   -9.768021    5.219509    8.107310
  39 H     1.0000    0     1.008   -8.008115    2.285041   11.106229
  40 C     6.0000    0    12.011   -8.656438    3.717874    7.242240
  41 O     8.0000    0    15.999   -4.753410    2.579613    8.995141
  42 C     6.0000    0    12.011   -4.344027    4.141945    7.037702
  43 C     6.0000    0    12.011   -7.397253    1.950859    9.171226
  44 O     8.0000    0    15.999   -6.540285    4.855344    5.959968
  45 O     8.0000    0    15.999   -2.316432    4.849572    6.334917
  46 H     1.0000    0     1.008   -9.795983    2.722053    5.853306
  47 H     1.0000    0     1.008   -7.622799   -0.035995    8.687907
  48 O     8.0000    0    15.999  -10.871080    4.926440    0.864206
  49 C     6.0000    0    12.011   -9.230548    6.468003    1.022595
  50 O     8.0000    0    15.999   -7.022225    6.368553   -0.245273
  51 O     8.0000    0    15.999   -9.344772    8.549161    2.494299
  52 C     6.0000    0    12.011   -5.328935    8.286396    0.678964
  53 C     6.0000    0    12.011   -7.067805   10.008253    2.236175
  54 H     1.0000    0     1.008   -3.875970    7.381639    1.823172
  55 H     1.0000    0     1.008   -7.534929   11.774955    1.281541
  56 H     1.0000    0     1.008   -4.475561    9.229935   -0.937286
  57 H     1.0000    0     1.008   -6.328837   10.402424    4.114036

--------------------------------
INTERNAL COORDINATES (ANGSTROEM)
--------------------------------
 O      0   0   0     0.000000000000     0.00000000     0.00000000
 O      1   0   0     6.310054149094     0.00000000     0.00000000
 C      1   2   0     2.443416706721    63.55542013     0.00000000
 C      3   1   2     1.486378737033    94.32325218     0.09649309
 C      2   1   3     2.434307270309    47.89439105   324.52713998
 C      5   2   1     1.393978587325   145.95926675    24.53443423
 C      3   1   2     2.449833173057   117.05156396   180.06589960
 C      7   3   1     1.392688867973    28.64544218   181.93466445
 C      1   2   3     1.359428446439    92.05974246   359.08854319
 C      4   3   1     1.397981608194   121.42445323   301.86535627
 C      2   1   3     1.371493649891    25.90276541   357.67466743
 C      5   2   1     1.516269508589    93.40063897   208.91720656
 C      7   3   1     1.517175420926   149.53578127   180.20349080
 C      7   3   1     1.394074829715    89.01094074     1.71245444
 C     10   4   3     1.386052116720   120.76335024   180.81742255
 C     14   7   3     1.386230898806   121.05229341   359.32735080
 C     12   5   2     1.507288052646   114.42172461   303.88010745
 C     13   7   3     1.503332744342   113.58184478    61.86510808
 C     17  12   5     1.331053315870   124.66701703   126.33793915
 C     18  13   7     1.327851117807   125.23645434   237.16506122
 H      6   5   2     1.084130165829   118.37140545   183.51619069
 H      8   7   3     1.084202778821   119.13543544   181.08357501
 H     10   4   3     1.082941776516   119.81470880   359.94151254
 H     12   5   2     1.094771865623   110.34658234    67.50637099
 H     12   5   2     1.094578548130   107.68048450   183.07377210
 H     13   7   3     1.094496094032   110.22793914   299.09246057
 H     13   7   3     1.095129489169   108.25552128   182.98462334
 H     14   7   3     1.084391292413   119.70408520   179.53398130
 H     15  10   4     1.082651439397   120.75287765   179.26919571
 H     16  14   7     1.082587280033   121.06294625   181.14754306
 H     17  12   5     1.087594390911   116.07142395   306.18578842
 H     18  13   7     1.087666886674   115.54153705    56.83205989
 H      1   2   3     0.969596491755    23.19569102   153.97964876
 H      2   1   3     0.969671623445   129.19658787   309.50961746
 H     19  17  12     1.083130443932   121.50263213   179.03456462
 H     19  17  12     1.085475570091   121.39436978     0.48650379
 H     20  18  13     1.082879549518   121.65864135   180.26665229
 H     20  18  13     1.085241060258   121.57310885     0.06289915
 H      2   1   3     4.738025422214    76.99913207   205.95291360
 H     39   2   1     2.407720491935    70.09022054   276.13557879
 C     39   2   1     1.089497684179    18.07191551   350.51234738
 O     40  39   2     2.058803131342    85.24494316    62.91131069
 C     42  40  39     1.342905778325   126.87746332     5.63835163
 C     40  39   2     1.088236729106    66.39181848    24.30254526
 O     43  42  40     1.348519296300   111.07120627   336.79743890
 O     43  42  40     1.195728064370   125.27183674   155.99963665
 H     41  39   2     1.086986929300   109.76586398    25.66357395
 H     44  40  39     1.088621161754   110.20885524   229.01465435
 O     24  12   5     2.629037928808   174.29005331    59.84408627
 C     49  24  12     1.194212044613    99.65347423   354.64986036
 O     50  49  24     1.348526785847   124.63710450    24.05722503
 O     50  49  24     1.350198640677   124.41002430   203.89639579
 C     51  50  49     1.439475273002   110.05183975   189.13756440
 C     52  50  49     1.437586081692   110.22808755   180.28714733
 H     53  51  50     1.089501977289   108.55987147   105.83972829
 H     54  52  50     1.091024843910   108.32039756   111.97506624
 H     53  51  50     1.088456606638   108.34243758   225.52690941
 H     54  52  50     1.088074503678   108.50644584   231.22022027

---------------------------
INTERNAL COORDINATES (A.U.)
---------------------------
 O      0   0   0     0.000000000000     0.00000000     0.00000000
 O      1   0   0    11.924274232001     0.00000000     0.00000000
 C      1   2   0     4.617388406750    63.55542013     0.00000000
 C      3   1   2     2.808848744275    94.32325218     0.09649309
 C      2   1   3     4.600174066698    47.89439105   324.52713998
 C      5   2   1     2.634237766594   145.95926675    24.53443423
 C      3   1   2     4.629513770873   117.05156396   180.06589960
 C      7   3   1     2.631800550229    28.64544218   181.93466445
 C      1   2   3     2.568947462432    92.05974246   359.08854319
 C      4   3   1     2.641802379745   121.42445323   301.86535627
 C      2   1   3     2.591747392705    25.90276541   357.67466743
 C      5   2   1     2.865334116449    93.40063897   208.91720656
 C      7   3   1     2.867046042668   149.53578127   180.20349080
 C      7   3   1     2.634419638355    89.01094074     1.71245444
 C     10   4   3     2.619258907943   120.76335024   180.81742255
 C     14   7   3     2.619596757123   121.05229341   359.32735080
 C     12   5   2     2.848361624432   114.42172461   303.88010745
 C     13   7   3     2.840887174963   113.58184478    61.86510808
 C     17  12   5     2.515326236643   124.66701703   126.33793915
 C     18  13   7     2.509274959276   125.23645434   237.16506122
 H      6   5   2     2.048709106940   118.37140545   183.51619069
 H      8   7   3     2.048846325608   119.13543544   181.08357501
 H     10   4   3     2.046463376598   119.81470880   359.94151254
 H     12   5   2     2.068819005149   110.34658234    67.50637099
 H     12   5   2     2.068453688031   107.68048450   183.07377210
 H     13   7   3     2.068297872367   110.22793914   299.09246057
 H     13   7   3     2.069494815710   108.25552128   182.98462334
 H     14   7   3     2.049202564670   119.70408520   179.53398130
 H     15  10   4     2.045914718956   120.75287765   179.26919571
 H     16  14   7     2.045793475329   121.06294625   181.14754306
 H     17  12   5     2.055255543611   116.07142395   306.18578842
 H     18  13   7     2.055392540748   115.54153705    56.83205989
 H      1   2   3     1.832271829828    23.19569102   153.97964876
 H      2   1   3     1.832413808145   129.19658787   309.50961746
 H     19  17  12     2.046819906344   121.50263213   179.03456462
 H     19  17  12     2.051251552535   121.39436978     0.48650379
 H     20  18  13     2.046345784613   121.65864135   180.26665229
 H     20  18  13     2.050808393174   121.57310885     0.06289915
 H      2   1   3     8.953570463542    76.99913207   205.95291360
 H     39   2   1     4.549932336787    70.09022054   276.13557879
 C     39   2   1     2.058852246639    18.07191551   350.51234738
 O     40  39   2     3.890574081896    85.24494316    62.91131069
 C     42  40  39     2.537724144695   126.87746332     5.63835163
 C     40  39   2     2.056469386885    66.39181848    24.30254526
 O     43  42  40     2.548332156315   111.07120627   336.79743890
 O     43  42  40     2.259598572303   125.27183674   155.99963665
 H     41  39   2     2.054107607529   109.76586398    25.66357395
 H     44  40  39     2.057195859307   110.20885524   229.01465435
 O     24  12   5     4.968161681138   174.29005331    59.84408627
 C     49  24  12     2.256733710149    99.65347423   354.64986036
 O     50  49  24     2.548346309507   124.63710450    24.05722503
 O     50  49  24     2.551505657272   124.41002430   203.89639579
 C     51  50  49     2.720214042526   110.05183975   189.13756440
 C     52  50  49     2.716643988336   110.22808755   180.28714733
 H     53  51  50     2.058860359442   108.55987147   105.83972829
 H     54  52  50     2.061738160295   108.32039756   111.97506624
 H     53  51  50     2.056884895203   108.34243758   225.52690941
 H     54  52  50     2.056162825253   108.50644584   231.22022027


ORCA finished by error termination in Startup
Calling Command: mpirun -np 25  /home/yongsang/orca_6_0_1_linux_x86-64_shared_openmpi416/orca_startup_mpi honokiol2-opt_EC2.int.tmp honokiol2-opt_EC2 
[file orca_tools/qcmsg.cpp, line 394]: 
  .... aborting the run

