
                                 *****************
                                 * O   R   C   A *
                                 *****************

                                            #,                                       
                                            ###                                      
                                            ####                                     
                                            #####                                    
                                            ######                                   
                                           ########,                                 
                                     ,,################,,,,,                         
                               ,,#################################,,                 
                          ,,##########################################,,             
                       ,#########################################, ''#####,          
                    ,#############################################,,   '####,        
                  ,##################################################,,,,####,       
                ,###########''''           ''''###############################       
              ,#####''   ,,,,##########,,,,          '''####'''          '####       
            ,##' ,,,,###########################,,,                        '##       
           ' ,,###''''                  '''############,,,                           
         ,,##''                                '''############,,,,        ,,,,,,###''
      ,#''                                            '''#######################'''  
     '                                                          ''''####''''         
             ,#######,   #######,   ,#######,      ##                                
            ,#'     '#,  ##    ##  ,#'     '#,    #''#        ,####,   ,####,        
            ##       ##  ##   ,#'  ##            #'  '#       #'       #'  '#        
            ##       ##  #######   ##           ,######,      #####,   #    #        
            '#,     ,#'  ##    ##  '#,     ,#' ,#      #,     #,   #   #,  ,#        
             '#######'   ##     ##  '#######'  #'      '#     '####' # '####'        



                #########################################################
                #                        -***-                          #
                #          Department of theory and spectroscopy        #
                #                                                       #
                #                      Frank Neese                      #
                #                                                       #
                #     Directorship, Architecture, Infrastructure        #
                #                    SHARK, DRIVERS                     #
                #        Core code/Algorithms in most modules           #
                #                                                       #
                #        Max Planck Institute fuer Kohlenforschung      #
                #                Kaiser Wilhelm Platz 1                 #
                #                 D-45470 Muelheim/Ruhr                 #
                #                      Germany                          #
                #                                                       #
                #                  All rights reserved                  #
                #                        -***-                          #
                #########################################################


                         Program Version 6.0.1  -  RELEASE   -


 With contributions from (in alphabetic order):
[Max-Planck-Institut fuer Kohlenforschung]                               
  Daniel Aravena         : Magnetic Suceptibility                        
  Michael Atanasov       : Ab Initio Ligand Field Theory (pilot matlab implementation)
  Alexander A. Auer      : GIAO ZORA, VPT2 properties, NMR spectrum      
  Ute Becker             : All parallelization in ORCA, NUMFREQ, NUMCALC 
  Giovanni Bistoni       : ED, misc. LED, open-shell LED, HFLD           
  Martin Brehm           : Molecular dynamics                            
  Dmytro Bykov           : pre 5.0 version of the SCF Hessian            
  Marcos Casanova-Páez   : Triplet and SCS-CIS(D). UHF-(DLPNO)-IP/EA/STEOM-CCSD. UHF-CVS-IP/STEOM-CCSD   
  Vijay G. Chilkuri      : MRCI spin determinant printing, contributions to CSF-ICE 
  Pauline Colinet        : FMM embedding                                 
  Dipayan Datta          : RHF DLPNO-CCSD density                        
  Achintya Kumar Dutta   : EOM-CC, STEOM-CC                              
  Nicolas Foglia         : Exact transition moments, OPA infrastructure, MCD improvements    
  Dmitry Ganyushin       : Spin-Orbit,Spin-Spin,Magnetic field MRCI      
  Miquel Garcia-Rates    : C-PCM and meta-GGA Hessian, CCSD/C-PCM, Gaussian charge scheme 
  Tiago L. C. Gouveia    : GS-ROHF, GS-ROCIS                             
  Yang Guo               : DLPNO-NEVPT2, F12-NEVPT2, CIM, IAO-localization        
  Andreas Hansen         : Spin unrestricted coupled pair/coupled cluster methods 
  Ingolf Harden          : AUTO-CI MPn and infrastructure                
  Benjamin Helmich-Paris : MC-RPA, TRAH-(SCF,CASSCF), AVAS, COSX integrals, SCF dyn. polar. 
  Lee Huntington         : MR-EOM, pCC                                   
  Robert Izsak           : Overlap fitted RIJCOSX, COSX-SCS-MP3, EOM     
  Riya Kayal             : Wick's Theorem for AUTO-CI, AUTO-CI UHF-CCSDT 
  Emily Kempfer          : AUTO-CI, RHF CISDT and CCSDT                  
  Christian Kollmar      : KDIIS, OOCD, Brueckner-CCSD(T), CCSD density, CASPT2, CASPT2-K, improved NEVPT2 
  Axel Koslowski         : Symmetry handling                             
  Simone Kossmann        : meta-GGA functionals, TD-DFT gradient, OOMP2, (MP2 Hessian; deprecated post 5.0) 
  Lucas Lang             : DCDCAS                                        
  Marvin Lechner         : AUTO-CI (C++ implementation), FIC-MRCC        
  Spencer Leger          : CASSCF response                               
  Dagmar Lenk            : GEPOL surface, SMD, ORCA-2-JSON               
  Dimitrios Liakos       : Extrapolation schemes; Compound Job, initial MDCI parallelization 
  Dimitrios Manganas     : Further ROCIS development; embedding schemes. LFT, Crystal Embedding 
  Dimitrios Pantazis     : SARC Basis sets                               
  Anastasios Papadopoulos: AUTO-CI, single reference methods and gradients 
  Taras Petrenko         : pre 6.0 DFT Hessian and TD-DFT gradient, (ASA, deprecated), ECA, 1-Electron XAS/XES, NRVS 
  Peter Pinski           : DLPNO-MP2, DLPNO-MP2 Gradient                 
  Christoph Reimann      : Effective Core Potentials                     
  Marius Retegan         : Local ZFS, SOC                                
  Christoph Riplinger    : Optimizer, TS searches, QM/MM, DLPNO-CCSD(T), (RO)-DLPNO pert. Triples 
  Michael Roemelt        : Original ROCIS implementation                 
  Masaaki Saitow         : Open-shell DLPNO-CCSD energy and density      
  Barbara Sandhoefer     : DKH picture change effects                    
  Kantharuban Sivalingam : CASSCF convergence/infrastructure, NEVPT2 and variants, FIC-MRCI 
  Bernardo de Souza      : ESD, SOC TD-DFT                               
  Georgi L. Stoychev     : AutoAux, RI-MP2 NMR, DLPNO-MP2 response, X2C  
  Van Anh Tran           : RI-MP2 g-tensors                              
  Willem Van den Heuvel  : Paramagnetic NMR                              
  Zikuan Wang            : NOTCH, Electric field optimization            
  Frank Wennmohs         : Technical directorship and infrastructure     
  Hang Xu                : AUTO-CI-Response properties                   
                                                                         
[FACCTs GmbH]                                                            
  Markus Bursch, Miquel Garcia-Rates, Christoph Riplinger, Bernardo de Souza, Georgi L. Stoychev 
                                                                 
  APM, Basis sets (HGBS, AHGBS, def-TZVP (Ac-Lr), def2-XVPD (La-Lu)), CI-OPT, improved COSX, DLPNO-Multilevel,           
  DOCKER, DRACO, updates on ESD, GOAT, IRC, LR-CPCM, MBIS, meta-GGA TD-DFT gradient, ML-optimized integration grids, 
  MM, NACMEs, nearIR, NEB, NEB-TS, NL-DFT gradient (VV10), 2- and 3-layer-ONIOM, interface openCOSMO-RS, QMMM,   
  Crystal-QMMM, SF, symmetry and pop. for TD-DFT, r2SCAN hybrids, SOLVATOR                                   
                                                                         
[Other institutions]                                                     
  V. Asgeirsson          : NEB                                           
  Christoph Bannwarth    : sTDA-DFT, sTD-DFT, PBEh-3c, B97-3c, D3        
  Sebastian Ehlert       : rSCAN, r2SCAN, r2SCAN-3c, D4, dhf basis sets  
  Marvin Friede          : D4 for Fr, Ra, Ac-Lr                          
  Lars Goerigk           : TD-DFT with DH, B97 family of functionals     
  Stefan Grimme          : VdW corrections, initial TS optimization, DFT functionals, gCP, sTDA/sTD-DF 
  Waldemar Hujo          : DFT-NL                                        
  H. Jonsson             : NEB                                           
  Holger Kruse           : gCP                                           
  Marcel Mueller         : wB97X-3c, vDZP basis set                      
  Hagen Neugebauer       : wr2SCAN                                       
  Tobias Risthaus        : range-separated hybrid DFT                    
  Lukas Wittmann         : regularized MP2, r2SCAN double-hybrids, wr2SCAN        
                                                                         
We gratefully acknowledge several colleagues who have allowed us to      
interface, adapt or use parts of their codes:                            
  Ed Valeev, F. Pavosevic, A. Kumar             : LibInt (2-el integral package), F12 methods 
  Garnet Chan, S. Sharma, J. Yang, R. Olivares  : DMRG                   
  Ulf Ekstrom                                   : XCFun DFT Library      
  Mihaly Kallay                                 : mrcc  (arbitrary order and MRCC methods)
  Frank Weinhold                                : gennbo (NPA and NBO analysis)           
  Simon Mueller                                 : openCOSMO-RS                            
  Christopher J. Cramer and Donald G. Truhlar   : smd solvation model                     
  S Lehtola, MJT Oliveira, MAL Marques          : LibXC Library                           
  Liviu Ungur et al                             : ANISO software                          


 Your calculation uses the libint2 library for the computation of 2-el integrals
 For citations please refer to: http://libint.valeyev.net

 Your ORCA version has been built with support for libXC version: 6.2.2
 For citations please refer to: https://libxc.gitlab.io

 This ORCA versions uses:
   CBLAS   interface :  Fast vector & matrix operations
   LAPACKE interface :  Fast linear algebra routines
   SCALAPACK package :  Parallel linear algebra routines
   Shared memory     :  Shared parallel matrices
   BLAS/LAPACK       :  OpenBLAS 0.3.27  USE64BITINT DYNAMIC_ARCH NO_AFFINITY SkylakeX SINGLE_THREADED
        Core in use  :  SkylakeX
   Copyright (c) 2011-2014, The OpenBLAS Project


NOTE: MaxCore=5000 MB was set to SCF,MP2,MDCI,CIPSI,MRCI and CIS
      => If you want to overwrite this, your respective input block should be placed after the MaxCore statement
Warning: RI is on but no J-basis has been assigned. Assigning Def2/J (nothing to worry about!)
================================================================================

----- Orbital basis set information -----
Your calculation utilizes the basis: def2-TZVP
   F. Weigend and R. Ahlrichs, Phys. Chem. Chem. Phys. 7, 3297 (2005).

----- AuxJ basis set information -----
Your calculation utilizes the auxiliary basis: def2/J
   F. Weigend, Phys. Chem. Chem. Phys. 8, 1057 (2006).

================================================================================
                                        WARNINGS
                       Please study these warnings very carefully!
================================================================================


WARNING: Geometry Optimization
  ===> : Switching off AutoStart
         For restart on a previous wavefunction, please use MOREAD

================================================================================
                                       INPUT FILE
================================================================================
NAME = honokiol2-opt_FEC.inp
|  1> ! OPT B3LYP def2-TZVP TightSCF
|  2> 
|  3> %maxcore 5000
|  4> 
|  5> %pal
|  6> nprocs 25
|  7> end
|  8> 
|  9> * xyz 0 1
| 10> O        1.4378139690      1.3195661235      2.4846843332                 
| 11> O       -3.6234784392     -2.4172476261      2.1711296358                 
| 12> C        1.2316508747     -0.0452440627      0.4817526856                 
| 13> C       -0.0501295459     -0.6510174407      0.9272245169                 
| 14> C       -2.4024759936     -1.1701844750      0.4805485812                 
| 15> C       -1.1861958465     -0.5988938885      0.1143732559                 
| 16> C        2.9867134943      0.1617234126     -1.2121583974                 
| 17> C        1.7864084777     -0.3790163602     -0.7557909566                 
| 18> C        1.9136446812      0.8917012095      1.2783982648                 
| 19> C       -0.1652800460     -1.3115486672      2.1572460316                 
| 20> C       -2.4771908492     -1.8350995348      1.7152730738                 
| 21> C       -3.6188231316     -1.0376314015     -0.4145222949                 
| 22> C        3.5576306637     -0.2451035689     -2.5577859631                 
| 23> C        3.6421187806      1.0766477396     -0.3896775700                 
| 24> C       -1.3613188329     -1.8963360126      2.5450015093                 
| 25> C        3.1126486007      1.4427193920      0.8396092968                 
| 26> C       -4.2044651309     -2.3528284400     -0.8606614678                 
| 27> C        2.6825503367      0.1391758189     -3.7190133238                 
| 28> C       -5.4758298944     -2.7129338946     -0.7095144037                 
| 29> C        2.1941432179     -0.7034841813     -4.6214319285                 
| 30> H       -1.1246082271     -0.0761530641     -0.8334873778                 
| 31> H        1.2640322567     -1.1006001298     -1.3739214573                 
| 32> H        0.7008179833     -1.4037257393      2.8019448401                 
| 33> H       -4.3961225376     -0.4520252456      0.0890069602                 
| 34> H       -3.3251032997     -0.4664904020     -1.3000436612                 
| 35> H        3.7333084446     -1.3251045492     -2.5829711451                 
| 36> H        4.5359707185      0.2324602654     -2.6760593020                 
| 37> H        4.5807689334      1.5130785794     -0.7119648283                 
| 38> H       -1.4451310488     -2.4239858047      3.4863615777                 
| 39> H        3.6125071571      2.1655921009      1.4715091226                 
| 40> H       -3.5103740987     -3.0409853560     -1.3366432547                 
| 41> H        2.4439570110      1.1973323924     -3.7963031512                 
| 42> H        0.5660773120      0.9317181704      2.6407788884                 
| 43> H       -4.2348821290     -2.5726546693      1.4367226504                 
| 44> H       -5.8390748728     -3.6710786874     -1.0589561646                 
| 45> H       -6.2028307461     -2.0540384265     -0.2452358997                 
| 46> H        1.5717158363     -0.3620514741     -5.4393010668                 
| 47> H        2.4041958508     -1.7670453117     -4.5782351147                 
| 48> H       -3.7819124477      1.5046688750      2.4301564483                 
| 49> H       -3.8867929422      0.2887540767      4.5462047808                 
| 50> O       -2.3065650109      1.5100397865      4.9534857776                 
| 51> C       -3.6499586806      1.3491506690      4.6071281732                 
| 52> C       -3.7926348963      2.1455748541      3.3129777241                 
| 53> C       -1.7535867024      2.5545063398      4.2458271669                 
| 54> O       -0.6704794347      2.9901686447      4.4333555721                 
| 55> O       -2.6291349035      2.9781576524      3.3063391611                 
| 56> F       -4.6841666607      2.7689057419      3.3197929694                 
| 57> H       -4.4424741478      1.8913455779      5.5966968645
| 58> *
| 59> 
| 60>                          ****END OF INPUT****
================================================================================

                       *****************************
                       * Geometry Optimization Run *
                       *****************************

Geometry optimization settings:
Update method            Update   .... BFGS
Choice of coordinates    CoordSys .... (2022) Redundant Internals
Initial Hessian          InHess   .... Almloef's Model
Max. no of cycles        MaxIter  .... 144

Convergence Tolerances:
Energy Change            TolE     ....  5.0000e-06 Eh
Max. Gradient            TolMAXG  ....  3.0000e-04 Eh/bohr
RMS Gradient             TolRMSG  ....  1.0000e-04 Eh/bohr
Max. Displacement        TolMAXD  ....  4.0000e-03 bohr
RMS Displacement         TolRMSD  ....  2.0000e-03 bohr
Strict Convergence                .... False

------------------------------------------------------------------------------
                        ORCA OPTIMIZATION COORDINATE SETUP
------------------------------------------------------------------------------

The optimization will be done in redundant internal coordinates (2022)
Making redundant internal coordinates   ...  (2022 redundants) done
Evaluating the initial hessian          ...  (Almloef) done
Evaluating the coordinates              ...  done
Calculating the B-matrix                .... done
Calculating the G-matrix                .... done
Diagonalizing the G-matrix              .... done
Small eigenvalue found = 3.669e-03
Small eigenvalue found = 7.110e-03
Small eigenvalue found = 1.376e-02
Small eigenvalue found = 1.602e-02
Small eigenvalue found = 2.745e-02
Small eigenvalue found = 2.996e-02
The first mode is                       ....  132
The number of degrees of freedom        ....  138

    -----------------------------------------------------------------
                    Redundant Internal Coordinates


    -----------------------------------------------------------------
         Definition                    Initial Value    Approx d2E/dq
    -----------------------------------------------------------------
      1. B(C   3,C   2)                  1.4861         0.439020   
      2. B(C   5,C   4)                  1.3928         0.618482   
      3. B(C   5,C   3)                  1.3979         0.606951   
      4. B(C   7,C   6)                  1.3933         0.617172   
      5. B(C   7,C   2)                  1.3967         0.609683   
      6. B(C   8,C   2)                  1.4063         0.588523   
      7. B(C   8,O   0)                  1.3655         0.612283   
      8. B(C   9,C   3)                  1.4009         0.600278   
      9. B(C  10,C   4)                  1.4044         0.592681   
     10. B(C  10,O   1)                  1.3641         0.615533   
     11. B(C  11,C   4)                  1.5160         0.393307   
     12. B(C  12,C   6)                  1.5173         0.391432   
     13. B(C  13,C   6)                  1.3940         0.615779   
     14. B(C  14,C   9)                  1.3867         0.632499   
     15. B(C  14,C  10)                  1.3919         0.620464   
     16. B(C  15,C   8)                  1.3906         0.623422   
     17. B(C  15,C  13)                  1.3876         0.630280   
     18. B(C  16,C  11)                  1.5072         0.406159   
     19. B(C  17,C  12)                  1.5040         0.411082   
     20. B(C  18,C  16)                  1.3300         0.778881   
     21. B(C  19,C  17)                  1.3278         0.785273   
     22. B(H  20,C   5)                  1.0842         0.367854   
     23. B(H  21,C   7)                  1.0843         0.367758   
     24. B(H  22,C   9)                  1.0836         0.368623   
     25. B(H  23,C  11)                  1.0958         0.352572   
     26. B(H  24,C  11)                  1.0939         0.354975   
     27. B(H  25,C  12)                  1.0945         0.354215   
     28. B(H  26,C  12)                  1.0951         0.353439   
     29. B(H  27,C  13)                  1.0842         0.367908   
     30. B(H  28,C  14)                  1.0824         0.370291   
     31. B(H  29,C  15)                  1.0825         0.370226   
     32. B(H  30,C  16)                  1.0871         0.363899   
     33. B(H  31,C  17)                  1.0875         0.363460   
     34. B(H  32,O   0)                  0.9668         0.507115   
     35. B(H  33,O   1)                  0.9682         0.504615   
     36. B(H  34,C  18)                  1.0826         0.369976   
     37. B(H  35,C  18)                  1.0855         0.366153   
     38. B(H  36,C  19)                  1.0830         0.369472   
     39. B(H  37,C  19)                  1.0850         0.366822   
     40. B(H  38,C  11)                  3.8186         0.000016   
     41. B(H  38,C  10)                  3.6561         0.000029   
     42. B(H  38,C   4)                  3.5859         0.000038   
     43. B(H  38,H  23)                  3.1124         0.000041   
     44. B(H  39,C  14)                  3.8933         0.000012   
     45. B(H  39,H  28)                  3.8005         0.000003   
     46. B(H  39,O   1)                  3.6101         0.000031   
     47. B(H  39,C  10)                  3.8094         0.000017   
     48. B(O  40,H  32)                  3.7330         0.000020   
     49. B(O  40,H  39)                  2.0383         0.009901   
     50. B(C  41,O  40)                  1.3966         0.546146   
     51. B(C  41,H  39)                  1.0882         0.362450   
     52. B(C  42,C  41)                  1.5263         0.378741   
     53. B(C  42,H  38)                  1.0910         0.358799   
     54. B(C  43,O   0)                  3.8486         0.000067   
     55. B(C  43,H  32)                  3.2543         0.000127   
     56. B(C  43,O  40)                  1.3775         0.585917   
     57. B(O  44,O   0)                  3.3216         0.000415   
     58. B(O  44,H  32)                  2.9966         0.000293   
     59. B(O  44,C  43)                  1.1824         1.199705   
     60. B(O  45,H  32)                  3.8523         0.000013   
     61. B(O  45,C  43)                  1.3523         0.642733   
     62. B(O  45,C  42)                  1.4307         0.481841   
     63. B(F  46,C  42)                  1.0878         1.577715   
     64. B(H  47,C  41)                  1.3789         0.124606   
     65. A(H  32,O   0,O  44)           62.2730         0.142008   
     66. A(C   8,O   0,O  44)          153.7700         0.153181   
     67. A(C  43,O   0,O  44)           17.0246         0.097142   
     68. A(H  32,O   0,C  43)           46.1438         0.124362   
     69. A(C   8,O   0,H  32)          109.3372         0.367738   
     70. A(C   8,O   0,C  43)          142.5375         0.131815   
     71. A(C  10,O   1,H  33)          110.2241         0.367760   
     72. A(C   7,C   2,C   8)          117.9398         0.428728   
     73. A(C   3,C   2,C   8)          121.3373         0.404392   
     74. A(C   3,C   2,C   7)          120.7171         0.406924   
     75. A(C   2,C   3,C   9)          121.7561         0.405807   
     76. A(C   2,C   3,C   5)          120.7622         0.406601   
     77. A(C   5,C   3,C   9)          117.4734         0.429905   
     78. A(C   5,C   4,C  10)          118.1526         0.430375   
     79. A(C   5,C   4,C  11)          120.6360         0.400117   
     80. A(C  10,C   4,C  11)          121.1856         0.397131   
     81. A(C   3,C   5,C   4)          122.7889         0.432218   
     82. A(C   4,C   5,H  20)          118.5043         0.354038   
     83. A(C   3,C   5,H  20)          118.6968         0.352911   
     84. A(C   7,C   6,C  12)          120.7015         0.399631   
     85. A(C   7,C   6,C  13)          117.8075         0.433177   
     86. A(C  12,C   6,C  13)          121.4899         0.399472   
     87. A(C   2,C   7,H  21)          118.2172         0.353164   
     88. A(C   2,C   7,C   6)          122.6595         0.432402   
     89. A(C   6,C   7,H  21)          119.1160         0.353895   
     90. A(O   0,C   8,C   2)          122.6978         0.426257   
     91. A(C   2,C   8,C  15)          120.2249         0.430446   
     92. A(O   0,C   8,C  15)          117.0676         0.430683   
     93. A(C   3,C   9,C  14)          121.0152         0.433101   
     94. A(C  14,C   9,H  22)          119.1529         0.355511   
     95. A(C   3,C   9,H  22)          119.7875         0.352376   
     96. A(O   1,C  10,C   4)          122.7239         0.427200   
     97. A(O   1,C  10,C  14)          117.1105         0.430725   
     98. A(C   4,C  10,C  14)          120.1513         0.430622   
     99. A(C   4,C  11,C  16)          114.2187         0.371870   
    100. A(H  23,C  11,H  24)          106.4650         0.289226   
    101. A(C   4,C  11,H  24)          107.9488         0.326305   
    102. A(C  16,C  11,H  23)          109.0704         0.327671   
    103. A(C   4,C  11,H  23)          110.1561         0.325941   
    104. A(C  16,C  11,H  24)          108.6815         0.328039   
    105. A(C   6,C  12,C  17)          113.4104         0.372336   
    106. A(H  25,C  12,H  26)          106.5255         0.289240   
    107. A(C  17,C  12,H  26)          108.9658         0.328456   
    108. A(C   6,C  12,H  26)          108.3618         0.325816   
    109. A(C  17,C  12,H  25)          109.1327         0.328575   
    110. A(C   6,C  12,H  25)          110.2052         0.325934   
    111. A(C   6,C  13,C  15)          121.0949         0.434818   
    112. A(C  15,C  13,H  27)          119.1768         0.355182   
    113. A(C   6,C  13,H  27)          119.7283         0.353784   
    114. A(C  10,C  14,H  28)          118.5423         0.354626   
    115. A(C   9,C  14,H  28)          121.0350         0.355784   
    116. A(C   9,C  14,C  10)          120.4135         0.435687   
    117. A(C  13,C  15,H  29)          121.1401         0.355561   
    118. A(C   8,C  15,H  29)          118.5924         0.354902   
    119. A(C   8,C  15,C  13)          120.2647         0.435784   
    120. A(C  11,C  16,C  18)          125.0328         0.419180   
    121. A(C  18,C  16,H  30)          119.2537         0.367555   
    122. A(C  11,C  16,H  30)          115.7132         0.329386   
    123. A(C  12,C  17,C  19)          125.2143         0.420694   
    124. A(C  19,C  17,H  31)          119.2437         0.367994   
    125. A(C  12,C  17,H  31)          115.5412         0.329976   
    126. A(H  34,C  18,H  35)          116.7794         0.292847   
    127. A(C  16,C  18,H  35)          121.6339         0.367945   
    128. A(C  16,C  18,H  34)          121.5788         0.368601   
    129. A(H  36,C  19,H  37)          116.7680         0.292868   
    130. A(C  17,C  19,H  37)          121.5907         0.368577   
    131. A(C  17,C  19,H  36)          121.6404         0.369032   
    132. A(C  41,O  40,C  43)          110.2480         0.414612   
    133. A(H  39,C  41,O  40)          109.6014         0.343705   
    134. A(O  40,C  41,H  47)          109.2429         0.289024   
    135. A(H  39,C  41,H  47)          107.3525         0.247975   
    136. A(C  42,C  41,H  47)          110.4634         0.274648   
    137. A(O  40,C  41,C  42)          103.8917         0.386440   
    138. A(H  39,C  41,C  42)          116.1456         0.325399   
    139. A(O  45,C  42,F  46)          109.4542         0.482843   
    140. A(C  41,C  42,F  46)          111.7338         0.465050   
    141. A(H  38,C  42,F  46)          110.4710         0.410284   
    142. A(C  41,C  42,O  45)          103.3897         0.378125   
    143. A(H  38,C  42,O  45)          109.2756         0.336018   
    144. A(H  38,C  42,C  41)          112.2516         0.324858   
    145. A(O   0,C  43,O  45)          108.6329         0.132288   
    146. A(O   0,C  43,O  44)           55.3341         0.138856   
    147. A(O   0,C  43,O  40)          108.9456         0.131391   
    148. A(O  44,C  43,O  45)          126.0034         0.486331   
    149. A(O  40,C  43,O  45)          109.5444         0.426837   
    150. A(O  40,C  43,O  44)          124.4457         0.478094   
    151. A(O   0,O  44,C  43)          107.6413         0.163735   
    152. A(C  42,O  45,C  43)          109.9373         0.412209   
    153. D(C   9,C   3,C   2,C   7)    125.9471         0.013153   
    154. D(C   5,C   3,C   2,C   7)    -52.9808         0.013153   
    155. D(C   5,C   3,C   2,C   8)    126.1242         0.013153   
    156. D(C   9,C   3,C   2,C   8)    -54.9479         0.013153   
    157. D(H  20,C   5,C   3,C   2)     -2.1826         0.025428   
    158. D(C   4,C   5,C   3,C   2)    178.9795         0.025428   
    159. D(H  20,C   5,C   4,C  10)   -179.4355         0.028754   
    160. D(C   3,C   5,C   4,C  10)     -0.5955         0.028754   
    161. D(C   3,C   5,C   4,C  11)    177.5799         0.028754   
    162. D(H  20,C   5,C   4,C  11)     -1.2601         0.028754   
    163. D(H  20,C   5,C   3,C   9)    178.8449         0.025428   
    164. D(C   4,C   5,C   3,C   9)      0.0070         0.025428   
    165. D(H  21,C   7,C   2,C   3)     -0.8348         0.025671   
    166. D(C   6,C   7,C   2,C   3)   -179.8475         0.025671   
    167. D(H  21,C   7,C   2,C   8)   -179.9695         0.025671   
    168. D(C   6,C   7,C   2,C   8)      1.0178         0.025671   
    169. D(H  21,C   7,C   6,C  13)   -179.3662         0.026343   
    170. D(C   2,C   7,C   6,C  12)    179.2609         0.026343   
    171. D(H  21,C   7,C   6,C  12)      0.2566         0.026343   
    172. D(C   2,C   7,C   6,C  13)     -0.3620         0.026343   
    173. D(C  15,C   8,O   0,H  32)    174.7142         0.032943   
    174. D(C  15,C   8,C   2,C   7)     -0.9595         0.023830   
    175. D(C  15,C   8,C   2,C   3)    179.9114         0.023830   
    176. D(O   0,C   8,C   2,C   3)     -1.2511         0.023830   
    177. D(O   0,C   8,C   2,C   7)    177.8780         0.023830   
    178. D(C   2,C   8,O   0,C  43)    -45.6321         0.032943   
    179. D(C  15,C   8,O   0,O  44)    108.5042         0.032943   
    180. D(C   2,C   8,O   0,H  32)     -4.1578         0.032943   
    181. D(C   2,C   8,O   0,O  44)    -70.3677         0.032943   
    182. D(C  14,C   9,C   3,C   2)   -178.5975         0.024842   
    183. D(C  14,C   9,C   3,C   5)      0.3641         0.024842   
    184. D(H  22,C   9,C   3,C   5)    177.9212         0.024842   
    185. D(H  22,C   9,C   3,C   2)     -1.0404         0.024842   
    186. D(C  14,C  10,C   4,C   5)      0.8249         0.030083   
    187. D(O   1,C  10,C   4,C  11)      1.2456         0.030083   
    188. D(O   1,C  10,C   4,C   5)    179.4105         0.030083   
    189. D(C   4,C  10,O   1,H  33)     19.4833         0.035839   
    190. D(C  14,C  10,C   4,C  11)   -177.3400         0.030083   
    191. D(C  14,C  10,O   1,H  33)   -161.8907         0.035839   
    192. D(H  24,C  11,C   4,C  10)    178.6613         0.013039   
    193. D(H  24,C  11,C   4,C   5)      0.5418         0.013039   
    194. D(H  23,C  11,C   4,C  10)     62.7955         0.013039   
    195. D(H  23,C  11,C   4,C   5)   -115.3241         0.013039   
    196. D(C  16,C  11,C   4,C  10)    -60.3483         0.013039   
    197. D(C  16,C  11,C   4,C   5)    121.5322         0.013039   
    198. D(H  26,C  12,C   6,C   7)   -175.3752         0.011395   
    199. D(H  25,C  12,C   6,C  13)    120.4336         0.011395   
    200. D(H  25,C  12,C   6,C   7)    -59.1751         0.011395   
    201. D(C  17,C  12,C   6,C  13)   -116.8883         0.011395   
    202. D(C  17,C  12,C   6,C   7)     63.5030         0.011395   
    203. D(H  27,C  13,C   6,C  12)      0.0870         0.026217   
    204. D(C  15,C  13,C   6,C  12)   -179.9880         0.026217   
    205. D(C  15,C  13,C   6,C   7)     -0.3683         0.026217   
    206. D(H  27,C  13,C   6,C   7)    179.7067         0.026217   
    207. D(H  28,C  14,C  10,C   4)   -179.3924         0.033179   
    208. D(H  28,C  14,C  10,O   1)      1.9444         0.033179   
    209. D(C   9,C  14,C  10,C   4)     -0.4797         0.033179   
    210. D(C   9,C  14,C  10,O   1)   -179.1430         0.033179   
    211. D(H  28,C  14,C   9,H  22)      1.1818         0.030163   
    212. D(H  28,C  14,C   9,C   3)    178.7542         0.030163   
    213. D(C  10,C  14,C   9,H  22)   -177.7034         0.030163   
    214. D(C  10,C  14,C   9,C   3)     -0.1310         0.030163   
    215. D(C  13,C  15,C   8,O   0)   -178.6264         0.026912   
    216. D(H  29,C  15,C  13,H  27)      0.9631         0.027545   
    217. D(H  29,C  15,C  13,C   6)   -178.9623         0.027545   
    218. D(C   8,C  15,C  13,H  27)   -179.6651         0.027545   
    219. D(C   8,C  15,C  13,C   6)      0.4095         0.027545   
    220. D(H  29,C  15,C   8,C   2)    179.6626         0.026912   
    221. D(H  29,C  15,C   8,O   0)      0.7612         0.026912   
    222. D(C  13,C  15,C   8,C   2)      0.2750         0.026912   
    223. D(H  30,C  16,C  11,H  24)     66.9389         0.013075   
    224. D(H  30,C  16,C  11,H  23)   -177.3740         0.013075   
    225. D(H  30,C  16,C  11,C   4)    -53.6444         0.013075   
    226. D(C  18,C  16,C  11,H  24)   -113.2472         0.013075   
    227. D(C  18,C  16,C  11,H  23)      2.4399         0.013075   
    228. D(C  18,C  16,C  11,C   4)    126.1695         0.013075   
    229. D(H  31,C  17,C  12,H  25)   -179.7943         0.012513   
    230. D(H  31,C  17,C  12,C   6)     56.9368         0.012513   
    231. D(C  19,C  17,C  12,H  26)    116.4855         0.012513   
    232. D(C  19,C  17,C  12,H  25)      0.5361         0.012513   
    233. D(C  19,C  17,C  12,C   6)   -122.7329         0.012513   
    234. D(H  35,C  18,C  16,H  30)   -179.6270         0.043592   
    235. D(H  35,C  18,C  16,C  11)      0.5653         0.043592   
    236. D(H  34,C  18,C  16,H  30)     -0.6802         0.043592   
    237. D(H  34,C  18,C  16,C  11)    179.5120         0.043592   
    238. D(H  37,C  19,C  17,H  31)   -179.7245         0.044385   
    239. D(H  37,C  19,C  17,C  12)     -0.0661         0.044385   
    240. D(H  36,C  19,C  17,H  31)      0.6338         0.044385   
    241. D(H  36,C  19,C  17,C  12)   -179.7078         0.044385   
    242. D(H  47,C  41,O  40,C  43)   -102.2010         0.027722   
    243. D(C  42,C  41,O  40,C  43)     15.6898         0.027722   
    244. D(H  39,C  41,O  40,C  43)    140.4350         0.027722   
    245. D(O  45,C  42,C  41,H  47)    100.1713         0.011437   
    246. D(O  45,C  42,C  41,O  40)    -16.8718         0.011437   
    247. D(O  45,C  42,C  41,H  39)   -137.2947         0.011437   
    248. D(H  38,C  42,C  41,H  47)   -142.1810         0.011437   
    249. D(H  38,C  42,C  41,O  40)    100.7759         0.011437   
    250. D(H  38,C  42,C  41,H  39)    -19.6470         0.011437   
    251. D(O   0,C  43,O  40,C  41)   -127.0632         0.034350   
    252. D(O  44,C  43,O  40,C  41)    172.5266         0.034350   
    253. D(O  45,C  43,O   0,H  32)    -79.4954         0.001500   
    254. D(O  45,C  43,O   0,C   8)    -19.4242         0.001500   
    255. D(O  44,C  43,O   0,H  32)    159.1010         0.001500   
    256. D(O  44,C  43,O   0,C   8)   -140.8279         0.001500   
    257. D(O  40,C  43,O   0,O  44)   -119.3212         0.001500   
    258. D(O  45,C  43,O  40,C  41)     -8.3574         0.034350   
    259. D(O  40,C  43,O   0,H  32)     39.7797         0.001500   
    260. D(O  40,C  43,O   0,C   8)     99.8509         0.001500   
    261. D(O   0,O  44,C  43,O  45)    -88.7211         0.163291   
    262. D(O   0,O  44,C  43,O  40)     90.2491         0.163291   
    263. D(C  43,O  44,O   0,H  32)    -16.8935         0.001500   
    264. D(C  43,O  44,O   0,C   8)     60.3744         0.001500   
    265. D(C  42,O  45,C  43,O   0)    115.3081         0.039377   
    266. D(C  42,O  45,C  43,O  44)    175.5076         0.039377   
    267. D(C  42,O  45,C  43,O  40)     -3.5913         0.039377   
    268. D(C  43,O  45,C  42,F  46)    131.9205         0.019863   
    269. D(C  43,O  45,C  42,C  41)     12.7263         0.019863   
    270. D(C  43,O  45,C  42,H  38)   -106.9843         0.019863   
    -----------------------------------------------------------------

Number of atoms                         .... 48
Number of degrees of freedom            .... 270


         *************************************************************
         *                GEOMETRY OPTIMIZATION CYCLE   1            *
         *************************************************************
---------------------------------
CARTESIAN COORDINATES (ANGSTROEM)
---------------------------------
  O      1.437814    1.319566    2.484684
  O     -3.623478   -2.417248    2.171130
  C      1.231651   -0.045244    0.481753
  C     -0.050130   -0.651017    0.927225
  C     -2.402476   -1.170184    0.480549
  C     -1.186196   -0.598894    0.114373
  C      2.986713    0.161723   -1.212158
  C      1.786408   -0.379016   -0.755791
  C      1.913645    0.891701    1.278398
  C     -0.165280   -1.311549    2.157246
  C     -2.477191   -1.835100    1.715273
  C     -3.618823   -1.037631   -0.414522
  C      3.557631   -0.245104   -2.557786
  C      3.642119    1.076648   -0.389678
  C     -1.361319   -1.896336    2.545002
  C      3.112649    1.442719    0.839609
  C     -4.204465   -2.352828   -0.860661
  C      2.682550    0.139176   -3.719013
  C     -5.475830   -2.712934   -0.709514
  C      2.194143   -0.703484   -4.621432
  H     -1.124608   -0.076153   -0.833487
  H      1.264032   -1.100600   -1.373921
  H      0.700818   -1.403726    2.801945
  H     -4.396123   -0.452025    0.089007
  H     -3.325103   -0.466490   -1.300044
  H      3.733308   -1.325105   -2.582971
  H      4.535971    0.232460   -2.676059
  H      4.580769    1.513079   -0.711965
  H     -1.445131   -2.423986    3.486362
  H      3.612507    2.165592    1.471509
  H     -3.510374   -3.040985   -1.336643
  H      2.443957    1.197332   -3.796303
  H      0.566077    0.931718    2.640779
  H     -4.234882   -2.572655    1.436723
  H     -5.839075   -3.671079   -1.058956
  H     -6.202831   -2.054038   -0.245236
  H      1.571716   -0.362051   -5.439301
  H      2.404196   -1.767045   -4.578235
  H     -3.781912    1.504669    2.430156
  H     -3.886793    0.288754    4.546205
  O     -2.306565    1.510040    4.953486
  C     -3.649959    1.349151    4.607128
  C     -3.792635    2.145575    3.312978
  C     -1.753587    2.554506    4.245827
  O     -0.670479    2.990169    4.433356
  O     -2.629135    2.978158    3.306339
  F     -4.684167    2.768906    3.319793
  H     -4.442474    1.891346    5.596697

----------------------------
CARTESIAN COORDINATES (A.U.)
----------------------------
  NO LB      ZA    FRAG     MASS         X           Y           Z
   0 O     8.0000    0    15.999    2.717075    2.493619    4.695373
   1 O     8.0000    0    15.999   -6.847382   -4.567936    4.102840
   2 C     6.0000    0    12.011    2.327483   -0.085499    0.910381
   3 C     6.0000    0    12.011   -0.094731   -1.230245    1.752200
   4 C     6.0000    0    12.011   -4.540022   -2.211328    0.908105
   5 C     6.0000    0    12.011   -2.241585   -1.131745    0.216134
   6 C     6.0000    0    12.011    5.644071    0.305613   -2.290647
   7 C     6.0000    0    12.011    3.375823   -0.716237   -1.428238
   8 C     6.0000    0    12.011    3.616264    1.685071    2.415823
   9 C     6.0000    0    12.011   -0.312334   -2.478468    4.076604
  10 C     6.0000    0    12.011   -4.681212   -3.467836    3.241396
  11 C     6.0000    0    12.011   -6.838585   -1.960839   -0.783334
  12 C     6.0000    0    12.011    6.722948   -0.463179   -4.833515
  13 C     6.0000    0    12.011    6.882607    2.034569   -0.736384
  14 C     6.0000    0    12.011   -2.572520   -3.583556    4.809356
  15 C     6.0000    0    12.011    5.882053    2.726345    1.586632
  16 C     6.0000    0    12.011   -7.945288   -4.446201   -1.626414
  17 C     6.0000    0    12.011    5.069285    0.263004   -7.027917
  18 C     6.0000    0    12.011  -10.347819   -5.126702   -1.340788
  19 C     6.0000    0    12.011    4.146330   -1.329392   -8.733241
  20 H     1.0000    0     1.008   -2.125202   -0.143908   -1.575063
  21 H     1.0000    0     1.008    2.388675   -2.079833   -2.596335
  22 H     1.0000    0     1.008    1.324354   -2.652657    5.294908
  23 H     1.0000    0     1.008   -8.307468   -0.854204    0.168199
  24 H     1.0000    0     1.008   -6.283535   -0.881539   -2.456726
  25 H     1.0000    0     1.008    7.054931   -2.504085   -4.881108
  26 H     1.0000    0     1.008    8.571742    0.439286   -5.057019
  27 H     1.0000    0     1.008    8.656399    2.859304   -1.345419
  28 H     1.0000    0     1.008   -2.730902   -4.580669    6.588269
  29 H     1.0000    0     1.008    6.826649    4.092376    2.780749
  30 H     1.0000    0     1.008   -6.633646   -5.746630   -2.525890
  31 H     1.0000    0     1.008    4.618409    2.262630   -7.173973
  32 H     1.0000    0     1.008    1.069731    1.760692    4.990349
  33 H     1.0000    0     1.008   -8.002767   -4.861613    2.715012
  34 H     1.0000    0     1.008  -11.034252   -6.937333   -2.001137
  35 H     1.0000    0     1.008  -11.721651   -3.881570   -0.463429
  36 H     1.0000    0     1.008    2.970112   -0.684178  -10.278789
  37 H     1.0000    0     1.008    4.543272   -3.339232   -8.651611
  38 H     1.0000    0     1.008   -7.146779    2.843412    4.592330
  39 H     1.0000    0     1.008   -7.344974    0.545666    8.591082
  40 O     8.0000    0    15.999   -4.358776    2.853562    9.360732
  41 C     6.0000    0    12.011   -6.897422    2.549525    8.706211
  42 C     6.0000    0    12.011   -7.167041    4.054549    6.260621
  43 C     6.0000    0    12.011   -3.313799    4.827317    8.023451
  44 O     8.0000    0    15.999   -1.267023    5.650600    8.377828
  45 O     8.0000    0    15.999   -4.968345    5.627902    6.248076
  46 F     9.0000    0    18.998   -8.851792    5.232474    6.273500
  47 H     1.0000    0     1.008   -8.395059    3.574125   10.576224

--------------------------------
INTERNAL COORDINATES (ANGSTROEM)
--------------------------------
 O      0   0   0     0.000000000000     0.00000000     0.00000000
 O      1   0   0     6.299109015469     0.00000000     0.00000000
 C      1   2   0     2.432477184017    63.77259403     0.00000000
 C      3   1   2     1.486057732596    93.15218861     0.58783938
 C      2   1   3     2.429830812457    47.65529728   324.53868438
 C      5   2   1     1.392765127116   146.33297007    25.01054443
 C      3   1   2     2.447940990232   117.48890922   179.81581447
 C      7   3   1     1.393342339766    28.70754247   181.76941718
 C      1   2   3     1.365506986478    92.87369626   359.19242297
 C      4   3   1     1.400897592788   121.75614782   304.46020474
 C      2   1   3     1.364066290292    24.25140510   355.73556696
 C      5   2   1     1.515988967855    93.00848149   207.01517430
 C      7   3   1     1.517289739227   149.40515424   180.52066115
 C      7   3   1     1.393957432954    89.10043641     1.44921383
 C     10   4   3     1.386664822369   121.01521184   181.40245049
 C     14   7   3     1.387621463866   121.09489359   359.45779932
 C     12   5   2     1.507235868409   114.21874749   300.24080384
 C     13   7   3     1.503956518596   113.41037361    64.20053130
 C     17  12   5     1.329996141080   125.03280575   126.16949595
 C     18  13   7     1.327771338650   125.21433088   237.26710827
 H      6   5   2     1.084200528166   118.50434585   181.06672281
 H      8   7   3     1.084271814958   119.11598599   180.99577981
 H     10   4   3     1.083632300487   119.78749096   358.95962538
 H     12   5   2     1.095751179391   110.15606776    63.38451788
 H     12   5   2     1.093901947679   107.94876114   179.25040547
 H     13   7   3     1.094485766716   110.20517349   301.52244796
 H     13   7   3     1.095082216709   108.36178346   185.32231912
 H     14   7   3     1.084160995490   119.72830541   179.53278114
 H     15  10   4     1.082403607263   121.03503233   178.75423043
 H     16  14   7     1.082451347417   121.14006662   181.03770271
 H     17  12   5     1.087143487990   115.71324800   306.35562402
 H     18  13   7     1.087472218739   115.54120908    56.93676244
 H      1   2   3     0.966807294162    17.36414623   161.06656350
 H      2   1   3     0.968152591889   129.82187571   314.76640006
 H     19  17  12     1.082634704119   121.57877540   179.51202468
 H     19  17  12     1.085462116120   121.63393016     0.56525635
 H     20  18  13     1.083006032437   121.64038358   180.29223249
 H     20  18  13     1.084965599182   121.59069546   359.93385622
 H     24  12   5     3.112376397828   122.79656071    21.51578440
 H     39  24  12     2.442766722454   109.28048224   271.18055235
 O     40  39  24     2.038268115380    80.88348542   141.78995986
 C     40  39  24     1.088229323337    63.52044534   180.13752746
 C     39  24  12     1.090985265691   167.43927089   206.15963897
 C     41  40  39     1.377489056193   131.52111752     6.39998091
 O     44  41  40     1.182408516551   124.44566151   197.85997467
 O     44  41  40     1.352295381993   109.54442001    16.97595622
 F     43  39  46     1.087849589874   110.47096793   120.47532700
 H     42  40  39     1.378877180821   107.35253479   133.08624529

---------------------------
INTERNAL COORDINATES (A.U.)
---------------------------
 O      0   0   0     0.000000000000     0.00000000     0.00000000
 O      1   0   0    11.903590926951     0.00000000     0.00000000
 C      1   2   0     4.596715704804    63.77259403     0.00000000
 C      3   1   2     2.808242133803    93.15218861     0.58783938
 C      2   1   3     4.591714787307    47.65529728   324.53868438
 C      5   2   1     2.631944659126   146.33297007    25.01054443
 C      3   1   2     4.625938063539   117.48890922   179.81581447
 C      7   3   1     2.633035432955    28.70754247   181.76941718
 C      1   2   3     2.580434238400    92.87369626   359.19242297
 C      4   3   1     2.647312792039   121.75614782   304.46020474
 C      2   1   3     2.577711717166    24.25140510   355.73556696
 C      5   2   1     2.864803971292    93.00848149   207.01517430
 C      7   3   1     2.867262072948   149.40515424   180.52066115
 C      7   3   1     2.634197790626    89.10043641     1.44921383
 C     10   4   3     2.620416753820   121.01521184   181.40245049
 C     14   7   3     2.622224544257   121.09489359   359.45779932
 C     12   5   2     2.848263010516   114.21874749   300.24080384
 C     13   7   3     2.842065937473   113.41037361    64.20053130
 C     17  12   5     2.513328465814   125.03280575   126.16949595
 C     18  13   7     2.509124198518   125.21433088   237.26710827
 H      6   5   2     2.048842072487   118.50434585   181.06672281
 H      8   7   3     2.048976785000   119.11598599   180.99577981
 H     10   4   3     2.047768277792   119.78749096   358.95962538
 H     12   5   2     2.070669639971   110.15606776    63.38451788
 H     12   5   2     2.067175098476   107.94876114   179.25040547
 H     13   7   3     2.068278356568   110.20517349   301.52244796
 H     13   7   3     2.069405483707   108.36178346   185.32231912
 H     14   7   3     2.048767366556   119.72830541   179.53278114
 H     15  10   4     2.045446384095   121.03503233   178.75423043
 H     16  14   7     2.045536599912   121.14006662   181.03770271
 H     17  12   5     2.054403460577   115.71324800   306.35562402
 H     18  13   7     2.055024671665   115.54120908    56.93676244
 H      1   2   3     1.827001010243    17.36414623   161.06656350
 H      2   1   3     1.829543254516   129.82187571   314.76640006
 H     19  17  12     2.045883093864   121.57877540   179.51202468
 H     19  17  12     2.051226128213   121.63393016     0.56525635
 H     20  18  13     2.046584802691   121.64038358   180.29223249
 H     20  18  13     2.050287847180   121.59069546   359.93385622
 H     24  12   5     5.881539017575   122.79656071    21.51578440
 H     39  24  12     4.616160114494   109.28048224   271.18055235
 O     40  39  24     3.851768525573    80.88348542   141.78995986
 C     40  39  24     2.056455392009    63.52044534   180.13752746
 C     39  24  12     2.061663368300   167.43927089   206.15963897
 C     41  40  39     2.603077068679   131.52111752     6.39998091
 O     44  41  40     2.234428274697   124.44566151   197.85997467
 O     44  41  40     2.555467924133   109.54442001    16.97595622
 F     43  39  46     2.055737799760   110.47096793   120.47532700
 H     42  40  39     2.605700244066   107.35253479   133.08624529

---------------------
BASIS SET INFORMATION
---------------------
There are 4 groups of distinct atoms

 Group   1 Type O   : 11s6p2d1f contracted to 5s3p2d1f pattern {62111/411/11/1}
 Group   2 Type C   : 11s6p2d1f contracted to 5s3p2d1f pattern {62111/411/11/1}
 Group   3 Type H   : 5s1p contracted to 3s1p pattern {311/1}
 Group   4 Type F   : 11s6p2d1f contracted to 5s3p2d1f pattern {62111/411/11/1}

Atom   0O    basis set group =>   1
Atom   1O    basis set group =>   1
Atom   2C    basis set group =>   2
Atom   3C    basis set group =>   2
Atom   4C    basis set group =>   2
Atom   5C    basis set group =>   2
Atom   6C    basis set group =>   2
Atom   7C    basis set group =>   2
Atom   8C    basis set group =>   2
Atom   9C    basis set group =>   2
Atom  10C    basis set group =>   2
Atom  11C    basis set group =>   2
Atom  12C    basis set group =>   2
Atom  13C    basis set group =>   2
Atom  14C    basis set group =>   2
Atom  15C    basis set group =>   2
Atom  16C    basis set group =>   2
Atom  17C    basis set group =>   2
Atom  18C    basis set group =>   2
Atom  19C    basis set group =>   2
Atom  20H    basis set group =>   3
Atom  21H    basis set group =>   3
Atom  22H    basis set group =>   3
Atom  23H    basis set group =>   3
Atom  24H    basis set group =>   3
Atom  25H    basis set group =>   3
Atom  26H    basis set group =>   3
Atom  27H    basis set group =>   3
Atom  28H    basis set group =>   3
Atom  29H    basis set group =>   3
Atom  30H    basis set group =>   3
Atom  31H    basis set group =>   3
Atom  32H    basis set group =>   3
Atom  33H    basis set group =>   3
Atom  34H    basis set group =>   3
Atom  35H    basis set group =>   3
Atom  36H    basis set group =>   3
Atom  37H    basis set group =>   3
Atom  38H    basis set group =>   3
Atom  39H    basis set group =>   3
Atom  40O    basis set group =>   1
Atom  41C    basis set group =>   2
Atom  42C    basis set group =>   2
Atom  43C    basis set group =>   2
Atom  44O    basis set group =>   1
Atom  45O    basis set group =>   1
Atom  46F    basis set group =>   4
Atom  47H    basis set group =>   3
---------------------------------
AUXILIARY/J BASIS SET INFORMATION
---------------------------------
There are 4 groups of distinct atoms

 Group   1 Type O   : 12s5p4d2f1g contracted to 6s4p3d1f1g pattern {711111/2111/211/2/1}
 Group   2 Type C   : 12s5p4d2f1g contracted to 6s4p3d1f1g pattern {711111/2111/211/2/1}
 Group   3 Type H   : 5s2p1d contracted to 3s1p1d pattern {311/2/1}
 Group   4 Type F   : 12s5p4d2f1g contracted to 6s4p3d1f1g pattern {711111/2111/211/2/1}

Atom   0O    basis set group =>   1
Atom   1O    basis set group =>   1
Atom   2C    basis set group =>   2
Atom   3C    basis set group =>   2
Atom   4C    basis set group =>   2
Atom   5C    basis set group =>   2
Atom   6C    basis set group =>   2
Atom   7C    basis set group =>   2
Atom   8C    basis set group =>   2
Atom   9C    basis set group =>   2
Atom  10C    basis set group =>   2
Atom  11C    basis set group =>   2
Atom  12C    basis set group =>   2
Atom  13C    basis set group =>   2
Atom  14C    basis set group =>   2
Atom  15C    basis set group =>   2
Atom  16C    basis set group =>   2
Atom  17C    basis set group =>   2
Atom  18C    basis set group =>   2
Atom  19C    basis set group =>   2
Atom  20H    basis set group =>   3
Atom  21H    basis set group =>   3
Atom  22H    basis set group =>   3
Atom  23H    basis set group =>   3
Atom  24H    basis set group =>   3
Atom  25H    basis set group =>   3
Atom  26H    basis set group =>   3
Atom  27H    basis set group =>   3
Atom  28H    basis set group =>   3
Atom  29H    basis set group =>   3
Atom  30H    basis set group =>   3
Atom  31H    basis set group =>   3
Atom  32H    basis set group =>   3
Atom  33H    basis set group =>   3
Atom  34H    basis set group =>   3
Atom  35H    basis set group =>   3
Atom  36H    basis set group =>   3
Atom  37H    basis set group =>   3
Atom  38H    basis set group =>   3
Atom  39H    basis set group =>   3
Atom  40O    basis set group =>   1
Atom  41C    basis set group =>   2
Atom  42C    basis set group =>   2
Atom  43C    basis set group =>   2
Atom  44O    basis set group =>   1
Atom  45O    basis set group =>   1
Atom  46F    basis set group =>   4
Atom  47H    basis set group =>   3
--------------------------------------------------------------------------
WARNING: There was an error initializing an OpenFabrics device.

  Local host:   ga01
  Local device: mlx5_0
--------------------------------------------------------------------------


           ************************************************************
           *        Program running with 25 parallel MPI-processes    *
           *              working on a common directory               *
           ************************************************************
------------------------------------------------------------------------------
                             ORCA STARTUP CALCULATIONS
                           -- RI-GTO INTEGRALS CHOSEN --
------------------------------------------------------------------------------
------------------------------------------------------------------------------
                   ___                                                        
                  /   \      - P O W E R E D   B Y -                         
                 /     \                                                     
                 |  |  |   _    _      __       _____    __    __             
                 |  |  |  | |  | |    /  \     |  _  \  |  |  /  |          
                  \  \/   | |  | |   /    \    | | | |  |  | /  /          
                 / \  \   | |__| |  /  /\  \   | |_| |  |  |/  /          
                |  |  |   |  __  | /  /__\  \  |    /   |      \           
                |  |  |   | |  | | |   __   |  |    \   |  |\   \          
                \     /   | |  | | |  |  |  |  | |\  \  |  | \   \       
                 \___/    |_|  |_| |__|  |__|  |_| \__\ |__|  \__/        
                                                                              
                      - O R C A' S   B I G   F R I E N D -                    
                                      &                                       
                       - I N T E G R A L  F E E D E R -                       
                                                                              
 v1 FN, 2020, v2 2021, v3 2022-2024                                           
------------------------------------------------------------------------------


----------------------
SHARK INTEGRAL PACKAGE
----------------------

Number of atoms                             ...     48
Number of basis functions                   ...    963
Number of shells                            ...    381
Maximum angular momentum                    ...      3
Integral batch strategy                     ... SHARK/LIBINT Hybrid
RI-J (if used) integral strategy            ... SPLIT-RIJ (Revised 2003 algorithm where possible)
Printlevel                                  ...      1
Contraction scheme used                     ... SEGMENTED contraction
Prescreening option                         ... SCHWARTZ
   Thresh                                   ... 2.500e-11
   Tcut                                     ... 2.500e-12
   Tpresel                                  ... 2.500e-12 
Coulomb Range Separation                    ... NOT USED
Exchange Range Separation                   ... NOT USED
Multipole approximations                    ... NOT USED
Finite Nucleus Model                        ... NOT USED
CABS basis                                  ... NOT available
Auxiliary Coulomb fitting basis             ... AVAILABLE
   # of basis functions in Aux-J            ...   1554
   # of shells in Aux-J                     ...    510
   Maximum angular momentum in Aux-J        ...      4
Auxiliary J/K fitting basis                 ... NOT available
Auxiliary Correlation fitting basis         ... NOT available
Auxiliary 'external' fitting basis          ... NOT available

Checking pre-screening integrals            ... done (  0.0 sec) Dimension = 381
Check shell pair data                       ... done (  0.0 sec)
Shell pair information
Shell pair cut-off parameter TPreSel        ...   2.5e-12
Total number of shell pairs                 ...     72771
Shell pairs after pre-screening             ...     44186
Total number of primitive shell pairs       ...    222768
Primitive shell pairs kept                  ...     87515
          la=0 lb=0:  11674 shell pairs
          la=1 lb=0:  13030 shell pairs
          la=1 lb=1:   3675 shell pairs
          la=2 lb=0:   6119 shell pairs
          la=2 lb=1:   3490 shell pairs
          la=2 lb=2:    830 shell pairs
          la=3 lb=0:   2826 shell pairs
          la=3 lb=1:   1644 shell pairs
          la=3 lb=2:    724 shell pairs
          la=3 lb=3:    174 shell pairs

Calculating one electron integrals          ... done (  0.1 sec)
Calculating RI/J V-Matrix + Cholesky decomp.... done (  0.1 sec)
Calculating Nuclear repulsion               ... done (  0.0 sec) ENN=   2391.106963128786 Eh

Diagonalization of the overlap matrix:
Smallest eigenvalue                        ... 6.313e-06
Time for diagonalization                   ...    0.144 sec
Threshold for overlap eigenvalues          ... 1.000e-07
Number of eigenvalues below threshold      ... 0
Time for construction of square roots      ...    0.074 sec
Total time needed                          ...    0.231 sec

-------------------
DFT GRID GENERATION
-------------------

General Integration Accuracy     IntAcc      ... 4.388
Radial Grid Type                 RadialGrid  ... OptM3 with GC (2021)
Angular Grid (max. ang.)         AngularGrid ... 4 (Lebedev-302)
Angular grid pruning method      GridPruning ... 4 (adaptive)
Weight generation scheme         WeightScheme... mBecke (2022)
Basis function cutoff            BFCut       ... 1.0000e-11
Integration weight cutoff        WCut        ... 1.0000e-14
Partially contracted basis set               ... off
Rotationally invariant grid construction     ... off
Angular grids for H and He will be reduced by one unit

Total number of grid points                  ...   228766
Total number of batches                      ...     3600
Average number of points per batch           ...       63
Average number of grid points per atom       ...     4766

--------------------
COSX GRID GENERATION
--------------------

GRIDX 1
-------
General Integration Accuracy     IntAcc      ... 3.816
Radial Grid Type                 RadialGrid  ... OptM3 with GC (2021)
Angular Grid (max. ang.)         AngularGrid ... 1 (Lebedev-50)
Angular grid pruning method      GridPruning ... 4 (adaptive)
Weight generation scheme         WeightScheme... mBecke (2022)
Basis function cutoff            BFCut       ... 1.0000e-11
Integration weight cutoff        WCut        ... 1.0000e-14
Partially contracted basis set               ... on
Rotationally invariant grid construction     ... off
Angular grids for H and He will be reduced by one unit

Total number of grid points                  ...    29000
Total number of batches                      ...      256
Average number of points per batch           ...      113
Average number of grid points per atom       ...      604
UseSFitting                                  ... on

GRIDX 2
-------
General Integration Accuracy     IntAcc      ... 4.020
Radial Grid Type                 RadialGrid  ... OptM3 with GC (2021)
Angular Grid (max. ang.)         AngularGrid ... 2 (Lebedev-110)
Angular grid pruning method      GridPruning ... 4 (adaptive)
Weight generation scheme         WeightScheme... mBecke (2022)
Basis function cutoff            BFCut       ... 1.0000e-11
Integration weight cutoff        WCut        ... 1.0000e-14
Partially contracted basis set               ... on
Rotationally invariant grid construction     ... off
Angular grids for H and He will be reduced by one unit

Total number of grid points                  ...    62940
Total number of batches                      ...      516
Average number of points per batch           ...      121
Average number of grid points per atom       ...     1311
UseSFitting                                  ... on

GRIDX 3
-------
General Integration Accuracy     IntAcc      ... 4.338
Radial Grid Type                 RadialGrid  ... OptM3 with GC (2021)
Angular Grid (max. ang.)         AngularGrid ... 3 (Lebedev-194)
Angular grid pruning method      GridPruning ... 4 (adaptive)
Weight generation scheme         WeightScheme... mBecke (2022)
Basis function cutoff            BFCut       ... 1.0000e-11
Integration weight cutoff        WCut        ... 1.0000e-14
Partially contracted basis set               ... on
Rotationally invariant grid construction     ... off
Angular grids for H and He will be reduced by one unit

Total number of grid points                  ...   137605
Total number of batches                      ...     1101
Average number of points per batch           ...      124
Average number of grid points per atom       ...     2867
UseSFitting                                  ... on
Initializing property integral containers    ... done (  0.0 sec)

SHARK setup successfully completed in   3.3 seconds

Maximum memory used throughout the entire STARTUP-calculation: 97.9 MB
[ga01:890506] 24 more processes have sent help message help-mpi-btl-openib.txt / error in device init
[ga01:890506] Set MCA parameter "orte_base_help_aggregate" to 0 to see all help / error messages
--------------------------------------------------------------------------
WARNING: There was an error initializing an OpenFabrics device.

  Local host:   ga01
  Local device: mlx5_0
--------------------------------------------------------------------------


           ************************************************************
           *        Program running with 25 parallel MPI-processes    *
           *              working on a common directory               *
           ************************************************************
-------------------------------------------------------------------------------
                                 ORCA GUESS
                   Start orbitals & Density for SCF / CASSCF
-------------------------------------------------------------------------------

------------
SCF SETTINGS
------------
Hamiltonian:
 Density Functional     Method          .... DFT(GTOs)
 Exchange Functional    Exchange        .... B88
   X-Alpha parameter    XAlpha          ....  0.666667
   Becke's b parameter  XBeta           ....  0.004200
 Correlation Functional Correlation     .... LYP
 LDA part of GGA corr.  LDAOpt          .... VWN-5
 Gradients option       PostSCFGGA      .... off
 Hybrid DFT is turned on
   Fraction HF Exchange ScalHFX         ....  0.200000
   Scaling of DF-GGA-X  ScalDFX         ....  0.720000
   Scaling of DF-GGA-C  ScalDFC         ....  0.810000
   Scaling of DF-LDA-C  ScalLDAC        ....  1.000000
   Perturbative correction              ....  0.000000
   NL short-range parameter             ....  4.800000
 RI-approximation to the Coulomb term is turned on
   Number of AuxJ basis functions       .... 1554
   RIJ-COSX (HFX calculated with COS-X)).... on


General Settings:
 Integral files         IntName         .... honokiol2-opt_FEC
 Hartree-Fock type      HFTyp           .... RHF
 Total Charge           Charge          ....    0
 Multiplicity           Mult            ....    1
 Number of Electrons    NEL             ....  196
 Basis Dimension        Dim             ....  963
 Nuclear Repulsion      ENuc            ....   2391.1069631288 Eh

Convergence Acceleration:
 AO-DIIS                CNVDIIS         .... on
   Start iteration      DIISMaxIt       ....    12
   Startup error        DIISStart       ....  0.200000
   # of expansion vecs  DIISMaxEq       ....     5
   Bias factor          DIISBfac        ....   1.050
   Max. coefficient     DIISMaxC        ....  10.000
 MO-DIIS                CNVKDIIS        .... off
 Trust-Rad. Augm. Hess. CNVTRAH         .... auto
   Auto Start mean grad. ratio tolernc. ....  1.125000
   Auto Start start iteration           ....    50
   Auto Start num. interpolation iter.  ....    10
   Max. Number of Micro iterations      ....    24
   Max. Number of Macro iterations      .... Maxiter - #DIIS iter
   Number of Davidson start vectors     ....     2
   Converg. threshold    (grad. norm)   ....   1.000e-05
   Grad. Scal. Fac. for Micro threshold ....   0.100
   Minimum threshold for Micro iter.    ....   1.000e-02
   NR start threshold (gradient norm)   ....   1.000e-04
   Initial trust radius                 ....   0.400
   Minimum AH scaling param. (alpha)    ....   1.000
   Maximum AH scaling param. (alpha)    .... 1000.000
   Quad. conv. algorithm                .... NR
   White noise on init. David. guess    .... on
   Maximum white noise                  ....   0.010
   Pseudo random numbers                .... off
   Inactive MOs                         .... canonical
   Orbital update algorithm             .... Taylor
   Preconditioner                       .... Diag
   Full preconditioner red. dimension   ....   250
 SOSCF                  CNVSOSCF        .... on
   Start iteration      SOSCFMaxIt      ....   150
   Startup grad/error   SOSCFStart      ....  0.003300
   Hessian update       SOSCFHessUp     .... L-BFGS
 Level Shifting         CNVShift        .... on
   Level shift para.    LevelShift      ....    0.2500
   Turn off err/grad.   ShiftErr        ....    0.0010
 Zerner damping         CNVZerner       .... off
 Static damping         CNVDamp         .... on
   Fraction old density DampFac         ....    0.7000
   Max. Damping (<1)    DampMax         ....    0.9800
   Min. Damping (>=0)   DampMin         ....    0.0000
   Turn off err/grad.   DampErr         ....    0.1000

SCF Procedure:
 Maximum # iterations   MaxIter         ....   125
 SCF integral mode      SCFMode         .... Direct
   Integral package                     .... SHARK and LIBINT hybrid scheme
 Reset frequency        DirectResetFreq ....    20
 Integral Threshold     Thresh          ....  2.500e-11 Eh
 Primitive CutOff       TCut            ....  2.500e-12 Eh

Convergence Tolerance:
 Convergence Check Mode ConvCheckMode   .... Total+1el-Energy
 Convergence forced     ConvForced      .... 0
 Energy Change          TolE            ....  1.000e-08 Eh
 1-El. energy change                    ....  1.000e-05 Eh
 Orbital Gradient       TolG            ....  1.000e-05
 Orbital Rotation angle TolX            ....  1.000e-05
 DIIS Error             TolErr          ....  5.000e-07

------------------------------
INITIAL GUESS: MODEL POTENTIAL
------------------------------
Loading Hartree-Fock densities                     ... done
Calculating cut-offs                               ... done
Initializing the effective Hamiltonian             ... done
Setting up the integral package (SHARK)            ... done
Starting the Coulomb interaction                   ... done (   0.2 sec)
Making the grid                                    ... done (   0.2 sec)
Mapping shells                                     ... done
Starting the XC term evaluation                    ... done (   0.1 sec)
  promolecular density results
     # of electrons  =    195.998738044
     EX              =   -165.412959943
     EC              =     -6.728027275
     EX+EC           =   -172.140987217
Transforming the Hamiltonian                       ... done (   0.1 sec)
Diagonalizing the Hamiltonian                      ... done (   0.2 sec)
Back transforming the eigenvectors                 ... done (   0.0 sec)
Now organizing SCF variables                       ... done
                      ------------------
                      INITIAL GUESS DONE (   0.9 sec)
                      ------------------
             **** ENERGY FILE WAS UPDATED (honokiol2-opt_FEC.en.tmp) ****
Finished Guess after   1.8 sec
Maximum memory used throughout the entire GUESS-calculation: 80.0 MB
[ga01:890622] 24 more processes have sent help message help-mpi-btl-openib.txt / error in device init
[ga01:890622] Set MCA parameter "orte_base_help_aggregate" to 0 to see all help / error messages
--------------------------------------------------------------------------
WARNING: There was an error initializing an OpenFabrics device.

  Local host:   ga01
  Local device: mlx5_0
--------------------------------------------------------------------------


           ************************************************************
           *        Program running with 25 parallel MPI-processes    *
           *              working on a common directory               *
           ************************************************************

-------------------------------------------------------------------------------------------
                                      ORCA LEAN-SCF
                              memory conserving SCF solver
-------------------------------------------------------------------------------------------

----------------------------------------D-I-I-S--------------------------------------------
Iteration    Energy (Eh)           Delta-E    RMSDP     MaxDP     DIISErr   Damp  Time(sec)
-------------------------------------------------------------------------------------------
               ***  Starting incremental Fock matrix formation  ***
[ga01:890727] 24 more processes have sent help message help-mpi-btl-openib.txt / error in device init
[ga01:890727] Set MCA parameter "orte_base_help_aggregate" to 0 to see all help / error messages
    1    -1287.7210143820316262     0.00e+00  1.22e-03  1.47e-01  3.03e-01  0.700   5.1
    2    -1288.0693505750946315    -3.48e-01  1.09e-03  1.48e-01  1.05e-01  0.700   3.2
                               ***Turning on AO-DIIS***
    3    -1288.2085306247254266    -1.39e-01  4.22e-04  3.84e-02  3.79e-02  0.700   2.9
    4    -1288.2922713644511532    -8.37e-02  5.91e-04  4.70e-02  1.90e-02  0.000   2.8
    5    -1288.4752309126292857    -1.83e-01  2.71e-04  3.61e-02  5.45e-03  0.000   2.9
                              *** Initializing SOSCF ***
---------------------------------------S-O-S-C-F--------------------------------------
Iteration    Energy (Eh)           Delta-E    RMSDP     MaxDP     MaxGrad    Time(sec)
--------------------------------------------------------------------------------------
    6    -1288.4761882857578712    -9.57e-04  1.00e-04  1.25e-02  1.93e-03     3.0
               *** Restarting incremental Fock matrix formation ***
    7    -1288.4762336756066361    -4.54e-05  7.03e-05  8.35e-03  2.45e-04     5.0
    8    -1288.4762236992914950     9.98e-06  1.35e-05  1.34e-03  5.70e-04     4.1
    9    -1288.4762425695466845    -1.89e-05  8.33e-06  6.90e-04  5.91e-05     3.2
   10    -1288.4762421121713487     4.57e-07  3.03e-06  3.81e-04  1.16e-04     3.0
   11    -1288.4762429361808245    -8.24e-07  1.57e-06  1.37e-04  1.27e-05     2.6
   12    -1288.4762429533029717    -1.71e-08  1.27e-06  1.35e-04  2.04e-05     2.5
   13    -1288.4762429495367542     3.77e-09  1.93e-06  2.10e-04  3.22e-06     2.3
                 **** Energy Check signals convergence ****

               *****************************************************
               *                     SUCCESS                       *
               *           SCF CONVERGED AFTER  13 CYCLES          *
               *****************************************************

Recomputing exchange energy using gridx3       ... done (    7.198 sec)
Old exchange energy                            :    -33.559427431 Eh
New exchange energy                            :    -33.559427753 Eh
Exchange energy change after final integration :     -0.000000322 Eh
Total energy after final integration           :  -1288.476243272 Eh
             **** ENERGY FILE WAS UPDATED (honokiol2-opt_FEC.en.tmp) ****

----------------
TOTAL SCF ENERGY
----------------

Total Energy       :      -1288.47624327182189 Eh          -35061.22106 eV

Components:
Nuclear Repulsion  :       2391.10696312878599 Eh           65065.32832 eV
Electronic Energy  :      -3679.58320607832275 Eh         -100126.54937 eV
One Electron Energy:      -6509.82819750965973 Eh         -177141.43095 eV
Two Electron Energy:       2830.24499143133698 Eh           77014.88158 eV

Virial components:
Potential Energy   :      -2572.42520858655098 Eh          -69999.24862 eV
Kinetic Energy     :       1283.94896531472932 Eh           34938.02756 eV
Virial Ratio       :          2.00352605756100

DFT components:
N(Alpha)           :       98.000021751062 electrons
N(Beta)            :       98.000021751062 electrons
N(Total)           :      196.000043502123 electrons
E(X)               :     -133.424705212781 Eh       
E(C)               :       -7.928264378820 Eh       
E(XC)              :     -141.352969591601 Eh       

---------------
SCF CONVERGENCE
---------------

  Last Energy change         ...   -3.7662e-09  Tolerance :   1.0000e-08
  Last MAX-Density change    ...    2.0997e-04  Tolerance :   1.0000e-07
  Last RMS-Density change    ...    1.9339e-06  Tolerance :   5.0000e-09
  Last DIIS Error            ...    1.9301e-03  Tolerance :   5.0000e-07
  Last Orbital Gradient      ...    3.2188e-06  Tolerance :   1.0000e-05
  Last Orbital Rotation      ...    1.0498e-05  Tolerance :   1.0000e-05


----------------
ORBITAL ENERGIES
----------------

  NO   OCC          E(Eh)            E(eV) 
   0   2.0000     -24.756197      -673.6504 
   1   2.0000     -19.191625      -522.2307 
   2   2.0000     -19.188496      -522.1455 
   3   2.0000     -19.162903      -521.4491 
   4   2.0000     -19.141857      -520.8764 
   5   2.0000     -19.122038      -520.3371 
   6   2.0000     -10.352851      -281.7154 
   7   2.0000     -10.333685      -281.1939 
   8   2.0000     -10.269589      -279.4497 
   9   2.0000     -10.244245      -278.7601 
  10   2.0000     -10.226184      -278.2686 
  11   2.0000     -10.204195      -277.6703 
  12   2.0000     -10.202499      -277.6241 
  13   2.0000     -10.195773      -277.4411 
  14   2.0000     -10.190931      -277.3093 
  15   2.0000     -10.189173      -277.2615 
  16   2.0000     -10.184723      -277.1404 
  17   2.0000     -10.184524      -277.1350 
  18   2.0000     -10.179606      -277.0012 
  19   2.0000     -10.178522      -276.9717 
  20   2.0000     -10.173132      -276.8250 
  21   2.0000     -10.172874      -276.8180 
  22   2.0000     -10.170274      -276.7472 
  23   2.0000     -10.167550      -276.6731 
  24   2.0000     -10.166644      -276.6485 
  25   2.0000     -10.160596      -276.4839 
  26   2.0000     -10.159824      -276.4629 
  27   2.0000      -1.432812       -38.9888 
  28   2.0000      -1.168958       -31.8090 
  29   2.0000      -1.071006       -29.1435 
  30   2.0000      -1.061057       -28.8728 
  31   2.0000      -1.055266       -28.7152 
  32   2.0000      -1.049519       -28.5589 
  33   2.0000      -0.875730       -23.8298 
  34   2.0000      -0.852765       -23.2049 
  35   2.0000      -0.827898       -22.5282 
  36   2.0000      -0.798281       -21.7223 
  37   2.0000      -0.782405       -21.2903 
  38   2.0000      -0.777773       -21.1643 
  39   2.0000      -0.769654       -20.9433 
  40   2.0000      -0.741014       -20.1640 
  41   2.0000      -0.724953       -19.7270 
  42   2.0000      -0.714763       -19.4497 
  43   2.0000      -0.702653       -19.1202 
  44   2.0000      -0.675595       -18.3839 
  45   2.0000      -0.674472       -18.3533 
  46   2.0000      -0.655112       -17.8265 
  47   2.0000      -0.637030       -17.3345 
  48   2.0000      -0.625971       -17.0335 
  49   2.0000      -0.624570       -16.9954 
  50   2.0000      -0.597730       -16.2651 
  51   2.0000      -0.588388       -16.0109 
  52   2.0000      -0.582890       -15.8612 
  53   2.0000      -0.556458       -15.1420 
  54   2.0000      -0.553111       -15.0509 
  55   2.0000      -0.538444       -14.6518 
  56   2.0000      -0.534802       -14.5527 
  57   2.0000      -0.521267       -14.1844 
  58   2.0000      -0.506059       -13.7706 
  59   2.0000      -0.503673       -13.7056 
  60   2.0000      -0.494164       -13.4469 
  61   2.0000      -0.486412       -13.2360 
  62   2.0000      -0.475004       -12.9255 
  63   2.0000      -0.464497       -12.6396 
  64   2.0000      -0.462205       -12.5772 
  65   2.0000      -0.461101       -12.5472 
  66   2.0000      -0.449729       -12.2378 
  67   2.0000      -0.434857       -11.8330 
  68   2.0000      -0.433311       -11.7910 
  69   2.0000      -0.431007       -11.7283 
  70   2.0000      -0.427008       -11.6195 
  71   2.0000      -0.425262       -11.5720 
  72   2.0000      -0.423589       -11.5264 
  73   2.0000      -0.419962       -11.4278 
  74   2.0000      -0.410854       -11.1799 
  75   2.0000      -0.402892       -10.9632 
  76   2.0000      -0.402465       -10.9516 
  77   2.0000      -0.393836       -10.7168 
  78   2.0000      -0.393169       -10.6987 
  79   2.0000      -0.381673       -10.3859 
  80   2.0000      -0.374609       -10.1936 
  81   2.0000      -0.370016       -10.0687 
  82   2.0000      -0.364966        -9.9312 
  83   2.0000      -0.358868        -9.7653 
  84   2.0000      -0.357184        -9.7195 
  85   2.0000      -0.350036        -9.5250 
  86   2.0000      -0.342972        -9.3327 
  87   2.0000      -0.330576        -8.9954 
  88   2.0000      -0.327136        -8.9018 
  89   2.0000      -0.321238        -8.7413 
  90   2.0000      -0.314829        -8.5669 
  91   2.0000      -0.307807        -8.3758 
  92   2.0000      -0.293577        -7.9886 
  93   2.0000      -0.266027        -7.2390 
  94   2.0000      -0.264484        -7.1970 
  95   2.0000      -0.259907        -7.0724 
[...]
   8 C     6.0000    0    12.011    3.842304    2.319091    1.996413
   9 C     6.0000    0    12.011   -0.297463   -1.511794    4.013016
  10 C     6.0000    0    12.011   -4.694820   -2.374049    3.197363
  11 C     6.0000    0    12.011   -6.720074   -1.216909   -1.002529
  12 C     6.0000    0    12.011    7.030225   -1.014226   -4.774166
  13 C     6.0000    0    12.011    7.226002    2.013893   -1.053394
  14 C     6.0000    0    12.011   -2.615059   -2.449657    4.801127
  15 C     6.0000    0    12.011    6.203935    3.078189    1.111042
  16 C     6.0000    0    12.011   -7.922481   -3.734102   -1.575419
  17 C     6.0000    0    12.011    5.423907   -0.655614   -7.090162
  18 C     6.0000    0    12.011  -10.348545   -4.292137   -1.223449
  19 C     6.0000    0    12.011    4.519262   -2.505369   -8.524357
  20 H     1.0000    0     1.008   -1.913026    0.303598   -1.881031
  21 H     1.0000    0     1.008    2.524495   -2.025110   -2.507734
  22 H     1.0000    0     1.008    1.301317   -1.590807    5.287195
  23 H     1.0000    0     1.008   -8.150855    0.054825   -0.211759
  24 H     1.0000    0     1.008   -6.090611   -0.361152   -2.775017
  25 H     1.0000    0     1.008    7.348241   -3.036886   -4.477362
  26 H     1.0000    0     1.008    8.889948   -0.170839   -5.109797
  27 H     1.0000    0     1.008    9.068885    2.634576   -1.699491
  28 H     1.0000    0     1.008   -2.829942   -3.263376    6.666239
  29 H     1.0000    0     1.008    7.200116    4.536198    2.143551
  30 H     1.0000    0     1.008   -6.661209   -5.173858   -2.321613
  31 H     1.0000    0     1.008    4.992776    1.293894   -7.576606
  32 H     1.0000    0     1.008    1.198278    3.232475    4.413467
  33 H     1.0000    0     1.008   -8.055468   -3.737337    2.773969
  34 H     1.0000    0     1.008  -11.102222   -6.137676   -1.683717
  35 H     1.0000    0     1.008  -11.677713   -2.905609   -0.502707
  36 H     1.0000    0     1.008    3.378421   -2.121296  -10.179585
  37 H     1.0000    0     1.008    4.897344   -4.475333   -8.099874
  38 H     1.0000    0     1.008   -9.495662    1.760588    6.046618
  39 H     1.0000    0     1.008   -7.102424   -0.886577    8.921404
  40 O     8.0000    0    15.999   -4.469957    1.953003    9.442352
  41 C     6.0000    0    12.011   -7.047677    1.114815    9.402363
  42 C     6.0000    0    12.011   -8.240028    2.741159    7.344253
  43 C     6.0000    0    12.011   -3.990098    3.351231    7.374527
  44 O     8.0000    0    15.999   -1.984968    4.160491    6.776493
  45 O     8.0000    0    15.999   -6.166137    3.701317    6.012570
  46 F     9.0000    0    18.998   -9.568729    4.725647    8.388300
  47 H     1.0000    0     1.008   -7.902213    1.456421   11.240252

--------------------------------
INTERNAL COORDINATES (ANGSTROEM)
--------------------------------
 O      0   0   0     0.000000000000     0.00000000     0.00000000
 O      1   0   0     6.348264044873     0.00000000     0.00000000
 C      1   2   0     2.442858190069    62.83692020     0.00000000
 C      3   1   2     1.486026923082    94.58580350     0.36998930
 C      2   1   3     2.431374748846    47.51097325   324.61240978
 C      5   2   1     1.393207756610   146.51426087    24.30888522
 C      3   1   2     2.449341230970   117.08028325   180.99356438
 C      7   3   1     1.392303793415    28.67317704   181.78575064
 C      1   2   3     1.358364909037    91.33892628   358.94775521
 C      4   3   1     1.398121458548   121.48051118   302.56596313
 C      2   1   3     1.374411863413    25.18350464   358.03508219
 C      5   2   1     1.515398297723    92.66159595   207.92523479
 C      7   3   1     1.517713761925   149.55837472   179.61385230
 C      7   3   1     1.394203627222    88.97594000     1.45063268
 C     10   4   3     1.387207208829   120.87801781   181.84044585
 C     14   7   3     1.386214580310   121.08375391   359.27199184
 C     12   5   2     1.507016962745   113.86023367   299.56000399
 C     13   7   3     1.503524692145   113.60365997    61.09297353
 C     17  12   5     1.330443536685   125.13060397   125.02464436
 C     18  13   7     1.327896279794   125.21565863   237.21534696
 H      6   5   2     1.084091560211   118.50747144   183.14530900
 H      8   7   3     1.084409232032   119.08919617   181.40073233
 H     10   4   3     1.082665439769   119.78547454     0.79558755
 H     12   5   2     1.096018021207   110.27809271    62.62623418
 H     12   5   2     1.093523670574   108.01954746   178.61290326
 H     13   7   3     1.094818862123   110.23361518   298.29613593
 H     13   7   3     1.095092740290   108.24250225   182.21130561
 H     14   7   3     1.084349654829   119.68323384   179.53913797
 H     15  10   4     1.082805005466   120.60725028   178.63510529
 H     16  14   7     1.082454480636   121.10724144   181.30985042
 H     17  12   5     1.087135113238   115.67725170   305.42017809
 H     18  13   7     1.087466644635   115.54981996    56.90323608
 H      1   2   3     0.969212127666    27.13831137   144.31320198
 H      2   1   3     0.969465953151   130.80855664   319.52917674
 H     19  17  12     1.082667554061   121.61352727   179.63753745
 H     19  17  12     1.085602696509   121.62578200     1.11221928
 H     20  18  13     1.083044885661   121.65825766   180.34515714
 H     20  18  13     1.084992589677   121.56341629   359.97625201
 H      2   1   3     3.116756425878    83.46978314   217.57505254
 H     39   2   1     2.424963904736    59.38560059   281.23044278
 O     40  39   2     2.067483855844    90.89897250   115.79020939
 C     40  39   2     1.089627878697    66.35557445   149.51724145
 C     39   2   1     1.087326465278   110.09425292   321.72675066
 C     41  40  39     1.345110476714   114.74114873   324.15138099
 O     44  41  40     1.187185901265   125.73249450   217.56028843
 O     44  41  40     1.371031951350   110.08473207    36.96701029
 F     43  39   2     1.379283351790   107.74571335   188.02674592
 H     42  40  39     1.087682933617   111.05983576   117.28841907

---------------------------
INTERNAL COORDINATES (A.U.)
---------------------------
 O      0   0   0     0.000000000000     0.00000000     0.00000000
 O      1   0   0    11.996480470629     0.00000000     0.00000000
 C      1   2   0     4.616332963237    62.83692020     0.00000000
 C      3   1   2     2.808183912260    94.58580350     0.36998930
 C      2   1   3     4.594632404251    47.51097325   324.61240978
 C      5   2   1     2.632781107647   146.51426087    24.30888522
 C      3   1   2     4.628584135054   117.08028325   180.99356438
 C      7   3   1     2.631072864773    28.67317704   181.78575064
 C      1   2   3     2.566937668008    91.33892628   358.94775521
 C      4   3   1     2.642066658615   121.48051118   302.56596313
 C      2   1   3     2.597262017063    25.18350464   358.03508219
 C      5   2   1     2.863687766506    92.66159595   207.92523479
 C      7   3   1     2.868063359722   149.55837472   179.61385230
 C      7   3   1     2.634663030369    88.97594000     1.45063268
 C     10   4   3     2.621441715688   120.87801781   181.84044585
 C     14   7   3     2.619565919634   121.08375391   359.27199184
 C     12   5   2     2.847849338763   113.86023367   299.56000399
 C     13   7   3     2.841249903742   113.60365997    61.09297353
 C     17  12   5     2.514173920981   125.13060397   125.02464436
 C     18  13   7     2.509360303063   125.21565863   237.21534696
 H      6   5   2     2.048636152894   118.50747144   183.14530900
 H      8   7   3     2.049236465637   119.08919617   181.40073233
 H     10   4   3     2.045941175826   119.78547454     0.79558755
 H     12   5   2     2.071173897924   110.27809271    62.62623418
 H     12   5   2     2.066460258344   108.01954746   178.61290326
 H     13   7   3     2.068907815664   110.23361518   298.29613593
 H     13   7   3     2.069425370393   108.24250225   182.21130561
 H     14   7   3     2.049123881038   119.68323384   179.53913797
 H     15  10   4     2.046204916769   120.60725028   178.63510529
 H     16  14   7     2.045542520838   121.10724144   181.30985042
 H     17  12   5     2.054387634589   115.67725170   305.42017809
 H     18  13   7     2.055014138135   115.54981996    56.90323608
 H      1   2   3     1.831545486963    27.13831137   144.31320198
 H      2   1   3     1.832025147617   130.80855664   319.52917674
 H     19  17  12     2.045945171257   121.61352727   179.63753745
 H     19  17  12     2.051491786649   121.62578200     1.11221928
 H     20  18  13     2.046658224643   121.65825766   180.34515714
 H     20  18  13     2.050338851823   121.56341629   359.97625201
 H      2   1   3     5.889816071050    83.46978314   217.57505254
 H     39   2   1     4.582517664596    59.38560059   281.23044278
 O     40  39   2     3.906978273849    90.89897250   115.79020939
 C     40  39   2     2.059098278623    66.35557445   149.51724145
 C     39   2   1     2.054749237539   110.09425292   321.72675066
 C     41  40  39     2.541890420857   114.74114873   324.15138099
 O     44  41  40     2.243456223443   125.73249450   217.56028843
 O     44  41  40     2.590874908907   110.08473207    36.96701029
 F     43  39   2     2.606467795960   107.74571335   188.02674592
 H     42  40  39     2.055422865076   111.05983576   117.28841907

--------------------------------------------------------------------------
WARNING: There was an error initializing an OpenFabrics device.

  Local host:   ga01
  Local device: mlx5_0
--------------------------------------------------------------------------


           ************************************************************
           *        Program running with 25 parallel MPI-processes    *
           *              working on a common directory               *
           ************************************************************
------------------------------------------------------------------------------
                   ___                                                        
                  /   \      - P O W E R E D   B Y -                         
                 /     \                                                     
                 |  |  |   _    _      __       _____    __    __             
                 |  |  |  | |  | |    /  \     |  _  \  |  |  /  |          
                  \  \/   | |  | |   /    \    | | | |  |  | /  /          
                 / \  \   | |__| |  /  /\  \   | |_| |  |  |/  /          
                |  |  |   |  __  | /  /__\  \  |    /   |      \           
                |  |  |   | |  | | |   __   |  |    \   |  |\   \          
                \     /   | |  | | |  |  |  |  | |\  \  |  | \   \       
                 \___/    |_|  |_| |__|  |__|  |_| \__\ |__|  \__/        
                                                                              
                      - O R C A' S   B I G   F R I E N D -                    
                                      &                                       
                       - I N T E G R A L  F E E D E R -                       
                                                                              
 v1 FN, 2020, v2 2021, v3 2022-2024                                           
------------------------------------------------------------------------------


----------------------
SHARK INTEGRAL PACKAGE
----------------------

Number of atoms                             ...     48
Number of basis functions                   ...    963
Number of shells                            ...    381
Maximum angular momentum                    ...      3
Integral batch strategy                     ... SHARK/LIBINT Hybrid
RI-J (if used) integral strategy            ... SPLIT-RIJ (Revised 2003 algorithm where possible)
Printlevel                                  ...      1
Contraction scheme used                     ... SEGMENTED contraction
Prescreening option                         ... SCHWARTZ
   Thresh                                   ... 2.500e-11
   Tcut                                     ... 2.500e-12
   Tpresel                                  ... 2.500e-12 
Coulomb Range Separation                    ... NOT USED
Exchange Range Separation                   ... NOT USED
Multipole approximations                    ... NOT USED
Finite Nucleus Model                        ... NOT USED
CABS basis                                  ... NOT available
Auxiliary Coulomb fitting basis             ... AVAILABLE
   # of basis functions in Aux-J            ...   1554
   # of shells in Aux-J                     ...    510
   Maximum angular momentum in Aux-J        ...      4
Auxiliary J/K fitting basis                 ... NOT available
Auxiliary Correlation fitting basis         ... NOT available
Auxiliary 'external' fitting basis          ... NOT available

Checking pre-screening integrals            ... done (  0.0 sec) Dimension = 381
Check shell pair data                       ... done (  0.0 sec)
Shell pair information
Shell pair cut-off parameter TPreSel        ...   2.5e-12
Total number of shell pairs                 ...     72771
Shell pairs after pre-screening             ...     44760
Total number of primitive shell pairs       ...    222768
Primitive shell pairs kept                  ...     88749
          la=0 lb=0:  11747 shell pairs
          la=1 lb=0:  13121 shell pairs
          la=1 lb=1:   3697 shell pairs
          la=2 lb=0:   6226 shell pairs
          la=2 lb=1:   3570 shell pairs
          la=2 lb=2:    865 shell pairs
          la=3 lb=0:   2885 shell pairs
          la=3 lb=1:   1692 shell pairs
          la=3 lb=2:    764 shell pairs
          la=3 lb=3:    193 shell pairs

Calculating one electron integrals          ... done (  0.1 sec)
Calculating RI/J V-Matrix + Cholesky decomp.... done (  0.1 sec)
Calculating Nuclear repulsion               ... done (  0.0 sec) ENN=   2425.182389985929 Eh

Diagonalization of the overlap matrix:
Smallest eigenvalue                        ... 5.466e-06
Time for diagonalization                   ...    0.150 sec
Threshold for overlap eigenvalues          ... 1.000e-07
Number of eigenvalues below threshold      ... 0
Time for construction of square roots      ...    0.073 sec
Total time needed                          ...    0.233 sec

-------------------
DFT GRID GENERATION
-------------------

General Integration Accuracy     IntAcc      ... 4.388
Radial Grid Type                 RadialGrid  ... OptM3 with GC (2021)
Angular Grid (max. ang.)         AngularGrid ... 4 (Lebedev-302)
Angular grid pruning method      GridPruning ... 4 (adaptive)
Weight generation scheme         WeightScheme... mBecke (2022)
Basis function cutoff            BFCut       ... 1.0000e-11
Integration weight cutoff        WCut        ... 1.0000e-14
Partially contracted basis set               ... off
Rotationally invariant grid construction     ... off
Angular grids for H and He will be reduced by one unit

Total number of grid points                  ...   228433
Total number of batches                      ...     3596
Average number of points per batch           ...       63
Average number of grid points per atom       ...     4759

--------------------
COSX GRID GENERATION
--------------------

GRIDX 1
-------
General Integration Accuracy     IntAcc      ... 3.816
Radial Grid Type                 RadialGrid  ... OptM3 with GC (2021)
Angular Grid (max. ang.)         AngularGrid ... 1 (Lebedev-50)
Angular grid pruning method      GridPruning ... 4 (adaptive)
Weight generation scheme         WeightScheme... mBecke (2022)
Basis function cutoff            BFCut       ... 1.0000e-11
Integration weight cutoff        WCut        ... 1.0000e-14
Partially contracted basis set               ... on
Rotationally invariant grid construction     ... off
Angular grids for H and He will be reduced by one unit

Total number of grid points                  ...    28960
Total number of batches                      ...      257
Average number of points per batch           ...      112
Average number of grid points per atom       ...      603
UseSFitting                                  ... on

GRIDX 2
-------
General Integration Accuracy     IntAcc      ... 4.020
Radial Grid Type                 RadialGrid  ... OptM3 with GC (2021)
Angular Grid (max. ang.)         AngularGrid ... 2 (Lebedev-110)
Angular grid pruning method      GridPruning ... 4 (adaptive)
Weight generation scheme         WeightScheme... mBecke (2022)
Basis function cutoff            BFCut       ... 1.0000e-11
Integration weight cutoff        WCut        ... 1.0000e-14
Partially contracted basis set               ... on
Rotationally invariant grid construction     ... off
Angular grids for H and He will be reduced by one unit

Total number of grid points                  ...    62831
Total number of batches                      ...      516
Average number of points per batch           ...      121
Average number of grid points per atom       ...     1309
UseSFitting                                  ... on

GRIDX 3
-------
General Integration Accuracy     IntAcc      ... 4.338
Radial Grid Type                 RadialGrid  ... OptM3 with GC (2021)
Angular Grid (max. ang.)         AngularGrid ... 3 (Lebedev-194)
Angular grid pruning method      GridPruning ... 4 (adaptive)
Weight generation scheme         WeightScheme... mBecke (2022)
Basis function cutoff            BFCut       ... 1.0000e-11
Integration weight cutoff        WCut        ... 1.0000e-14
Partially contracted basis set               ... on
Rotationally invariant grid construction     ... off
Angular grids for H and He will be reduced by one unit

Total number of grid points                  ...   137287
Total number of batches                      ...     1096
Average number of points per batch           ...      125
Average number of grid points per atom       ...     2860
UseSFitting                                  ... on
Initializing property integral containers    ... done (  0.0 sec)

SHARK setup successfully completed in   3.3 seconds

Maximum memory used throughout the entire STARTUP-calculation: 106.0 MB
[ga01:912261] 24 more processes have sent help message help-mpi-btl-openib.txt / error in device init
[ga01:912261] Set MCA parameter "orte_base_help_aggregate" to 0 to see all help / error messages
--------------------------------------------------------------------------
WARNING: There was an error initializing an OpenFabrics device.

  Local host:   ga01
  Local device: mlx5_0
--------------------------------------------------------------------------
[ga01:912367] *** Process received signal ***
[ga01:912367] Signal: Segmentation fault (11)
[ga01:912367] Signal code: Address not mapped (1)
[ga01:912367] Failing at address: (nil)
[ga01:912367] [ 0] /usr/lib64/libpthread.so.0(+0x12cf0)[0x147a2fb2acf0]
[ga01:912367] [ 1] /usr/lib64/libc.so.6(+0xc84d2)[0x147a2f81a4d2]
[ga01:912367] [ 2] /home/yongsang/.openmpi/lib/libopen-rte.so.40(+0x2b27d)[0x147a30c1527d]
[ga01:912367] [ 3] /home/yongsang/.openmpi/lib/libopen-rte.so.40(orte_show_help_recv+0x147)[0x147a30c156f7]
[ga01:912367] [ 4] /home/yongsang/.openmpi/lib/libopen-rte.so.40(orte_rml_base_process_msg+0x39b)[0x147a30c7121b]
[ga01:912367] [ 5] /home/yongsang/.openmpi/lib/libopen-pal.so.40(opal_libevent2022_event_base_loop+0x769)[0x147a3095f5b9]
[ga01:912367] [ 6] mpirun[0x400f39]
[ga01:912367] [ 7] /usr/lib64/libc.so.6(__libc_start_main+0xe5)[0x147a2f78cd85]
[ga01:912367] [ 8] mpirun[0x400cde]
[ga01:912367] *** End of error message ***

ORCA finished by error termination in GUESS
Calling Command: mpirun -np 25  /home/yongsang/orca_6_0_1_linux_x86-64_shared_openmpi416/orca_guess_mpi honokiol2-opt_FEC.gbw honokiol2-opt_FEC 
[file orca_tools/qcmsg.cpp, line 394]: 
  .... aborting the run

[file orca_tools/qcmsg.cpp, line 394]: 
  .... aborting the run

