[Molden Format]
[Title]
 Molden file created by orca_2mkl for BaseName=EMC

[Atoms] AU
O    1   8          1.2581923643        -0.8518118791         0.0001447953 
O    2   8         -2.7829102696        -1.4724135130         0.0000735013 
O    3   8         -1.3367490316         2.5557222904        -0.0019965275 
C    4   6          3.4415475115         0.7931303613        -0.0004138107 
C    5   6          5.7665700253        -0.8659299165        -0.0003859398 
C    6   6         -0.9842096722         0.3057702198        -0.0007435103 
C    7   6         -5.3297153436        -0.5377283459        -0.0007514010 
H    8   1          3.3559646569         2.0037369521        -1.6675710947 
H    9   1          3.3564387291         2.0042294830         1.6664230625 
H   10   1          7.4574635142         0.3161847032         0.0004000021 
H   11   1          5.8156998190        -2.0705009843         1.6718583500 
H   12   1          5.8165491720        -2.0697859273        -1.6731025580 
H   13   1         -5.6828711357         0.6026787179         1.6770525886 
H   14   1         -6.5228858741        -2.2090862409         0.0002573029 
H   15   1         -5.6825970999         0.6004518372        -1.6801264735 
[GTO]
  1 0
s   6 1.0 
    27032.3826310000         0.8598581479
     4052.3871392000         1.6055305368
      922.3272271000         2.7458778516
      261.2407098900         4.2987674426
       85.3546413510         5.8797663284
       31.0350352450         6.3163983216
s   2 1.0 
       12.2608607280         2.9812147522
        4.9987076005         0.9419559635
s   1 1.0 
        1.1703108158         0.8019291610
s   1 1.0 
        0.4647474099         0.4011648062
s   1 1.0 
        0.1850453636         0.2010799406
p   4 1.0 
       63.2749548010         3.0572017144
       14.6270493790         3.3844839414
        4.4501223456         2.9474262132
        1.5275799647         1.7118271494
p   1 1.0 
        0.5293511794         0.6436057926
p   1 1.0 
        0.1747842127         0.1610897254
d   1 1.0 
        2.3140000000        12.3767310624
d   1 1.0 
        0.6450000000         1.3234257612
f   1 1.0 
        1.4280000000        12.7097950062

  2 0
s   6 1.0 
    27032.3826310000         0.8598581479
     4052.3871392000         1.6055305368
      922.3272271000         2.7458778516
      261.2407098900         4.2987674426
       85.3546413510         5.8797663284
       31.0350352450         6.3163983216
s   2 1.0 
       12.2608607280         2.9812147522
        4.9987076005         0.9419559635
s   1 1.0 
        1.1703108158         0.8019291610
s   1 1.0 
        0.4647474099         0.4011648062
s   1 1.0 
        0.1850453636         0.2010799406
p   4 1.0 
       63.2749548010         3.0572017144
       14.6270493790         3.3844839414
        4.4501223456         2.9474262132
        1.5275799647         1.7118271494
p   1 1.0 
        0.5293511794         0.6436057926
p   1 1.0 
        0.1747842127         0.1610897254
d   1 1.0 
        2.3140000000        12.3767310624
d   1 1.0 
        0.6450000000         1.3234257612
f   1 1.0 
        1.4280000000        12.7097950062

  3 0
s   6 1.0 
    27032.3826310000         0.8598581479
     4052.3871392000         1.6055305368
      922.3272271000         2.7458778516
      261.2407098900         4.2987674426
       85.3546413510         5.8797663284
       31.0350352450         6.3163983216
s   2 1.0 
       12.2608607280         2.9812147522
        4.9987076005         0.9419559635
s   1 1.0 
        1.1703108158         0.8019291610
s   1 1.0 
        0.4647474099         0.4011648062
s   1 1.0 
        0.1850453636         0.2010799406
p   4 1.0 
       63.2749548010         3.0572017144
       14.6270493790         3.3844839414
        4.4501223456         2.9474262132
        1.5275799647         1.7118271494
p   1 1.0 
        0.5293511794         0.6436057926
p   1 1.0 
        0.1747842127         0.1610897254
d   1 1.0 
        2.3140000000        12.3767310624
d   1 1.0 
        0.6450000000         1.3234257612
f   1 1.0 
        1.4280000000        12.7097950062

  4 0
s   6 1.0 
    13575.3496820000         0.5435905310
     2035.2333680000         1.0145543947
      463.2256235900         1.7315731970
      131.2001959800         2.6910376290
       42.8530158910         3.6044547126
       15.5841857660         3.7025556986
s   2 1.0 
        6.2067138508         1.8383540830
        2.5764896527         0.5447575605
s   1 1.0 
        0.5769633942         0.4718145038
s   1 1.0 
        0.2297283136         0.2364944676
s   1 1.0 
        0.0951644400         0.1221141848
p   4 1.0 
       34.6972322440         1.3596651507
        7.9582622826         1.4512589486
        2.3780826883         1.2709231419
        0.8143320818         0.8025721189
p   1 1.0 
        0.2888754725         0.3018758868
p   1 1.0 
        0.1005682367         0.0807265016
d   1 1.0 
        1.0970000000         3.3522135855
d   1 1.0 
        0.3180000000         0.3838994974
f   1 1.0 
        0.7610000000         3.0840084332

  5 0
s   6 1.0 
    13575.3496820000         0.5435905310
     2035.2333680000         1.0145543947
      463.2256235900         1.7315731970
      131.2001959800         2.6910376290
       42.8530158910         3.6044547126
       15.5841857660         3.7025556986
s   2 1.0 
        6.2067138508         1.8383540830
        2.5764896527         0.5447575605
s   1 1.0 
        0.5769633942         0.4718145038
s   1 1.0 
        0.2297283136         0.2364944676
s   1 1.0 
        0.0951644400         0.1221141848
p   4 1.0 
       34.6972322440         1.3596651507
        7.9582622826         1.4512589486
        2.3780826883         1.2709231419
        0.8143320818         0.8025721189
p   1 1.0 
        0.2888754725         0.3018758868
p   1 1.0 
        0.1005682367         0.0807265016
d   1 1.0 
        1.0970000000         3.3522135855
d   1 1.0 
        0.3180000000         0.3838994974
f   1 1.0 
        0.7610000000         3.0840084332

  6 0
s   6 1.0 
    13575.3496820000         0.5435905310
     2035.2333680000         1.0145543947
      463.2256235900         1.7315731970
      131.2001959800         2.6910376290
       42.8530158910         3.6044547126
       15.5841857660         3.7025556986
s   2 1.0 
        6.2067138508         1.8383540830
        2.5764896527         0.5447575605
s   1 1.0 
        0.5769633942         0.4718145038
s   1 1.0 
        0.2297283136         0.2364944676
s   1 1.0 
        0.0951644400         0.1221141848
p   4 1.0 
       34.6972322440         1.3596651507
        7.9582622826         1.4512589486
        2.3780826883         1.2709231419
        0.8143320818         0.8025721189
p   1 1.0 
        0.2888754725         0.3018758868
p   1 1.0 
        0.1005682367         0.0807265016
d   1 1.0 
        1.0970000000         3.3522135855
d   1 1.0 
        0.3180000000         0.3838994974
f   1 1.0 
        0.7610000000         3.0840084332

  7 0
s   6 1.0 
    13575.3496820000         0.5435905310
     2035.2333680000         1.0145543947
      463.2256235900         1.7315731970
      131.2001959800         2.6910376290
       42.8530158910         3.6044547126
       15.5841857660         3.7025556986
s   2 1.0 
        6.2067138508         1.8383540830
        2.5764896527         0.5447575605
s   1 1.0 
        0.5769633942         0.4718145038
s   1 1.0 
        0.2297283136         0.2364944676
s   1 1.0 
        0.0951644400         0.1221141848
p   4 1.0 
       34.6972322440         1.3596651507
        7.9582622826         1.4512589486
        2.3780826883         1.2709231419
        0.8143320818         0.8025721189
p   1 1.0 
        0.2888754725         0.3018758868
p   1 1.0 
        0.1005682367         0.0807265016
d   1 1.0 
        1.0970000000         3.3522135855
d   1 1.0 
        0.3180000000         0.3838994974
f   1 1.0 
        0.7610000000         3.0840084332

  8 0
s   3 1.0 
       34.0613410000         0.2556299169
        5.1235746000         0.4613599649
        1.1646626000         0.6811214941
s   1 1.0 
        0.3272304100         0.3083545312
s   1 1.0 
        0.1030724100         0.1296483265
p   1 1.0 
        0.8000000000         1.0784563492

  9 0
s   3 1.0 
       34.0613410000         0.2556299169
        5.1235746000         0.4613599649
        1.1646626000         0.6811214941
s   1 1.0 
        0.3272304100         0.3083545312
s   1 1.0 
        0.1030724100         0.1296483265
p   1 1.0 
        0.8000000000         1.0784563492

 10 0
s   3 1.0 
       34.0613410000         0.2556299169
        5.1235746000         0.4613599649
        1.1646626000         0.6811214941
s   1 1.0 
        0.3272304100         0.3083545312
s   1 1.0 
        0.1030724100         0.1296483265
p   1 1.0 
        0.8000000000         1.0784563492

 11 0
s   3 1.0 
       34.0613410000         0.2556299169
        5.1235746000         0.4613599649
        1.1646626000         0.6811214941
s   1 1.0 
        0.3272304100         0.3083545312
s   1 1.0 
        0.1030724100         0.1296483265
p   1 1.0 
        0.8000000000         1.0784563492

 12 0
s   3 1.0 
       34.0613410000         0.2556299169
        5.1235746000         0.4613599649
        1.1646626000         0.6811214941
s   1 1.0 
        0.3272304100         0.3083545312
s   1 1.0 
        0.1030724100         0.1296483265
p   1 1.0 
        0.8000000000         1.0784563492

 13 0
s   3 1.0 
       34.0613410000         0.2556299169
        5.1235746000         0.4613599649
        1.1646626000         0.6811214941
s   1 1.0 
        0.3272304100         0.3083545312
s   1 1.0 
        0.1030724100         0.1296483265
p   1 1.0 
        0.8000000000         1.0784563492

 14 0
s   3 1.0 
       34.0613410000         0.2556299169
        5.1235746000         0.4613599649
        1.1646626000         0.6811214941
s   1 1.0 
        0.3272304100         0.3083545312
s   1 1.0 
        0.1030724100         0.1296483265
p   1 1.0 
        0.8000000000         1.0784563492

 15 0
s   3 1.0 
       34.0613410000         0.2556299169
        5.1235746000         0.4613599649
        1.1646626000         0.6811214941
s   1 1.0 
        0.3272304100         0.3083545312
s   1 1.0 
        0.1030724100         0.1296483265
p   1 1.0 
        0.8000000000         1.0784563492

[5D]
[7F]
[9G]
[MO]
 Sym=     1a
 Ene= -1.91736471870677E+01
 Spin= Alpha
 Occup= 2.000000
  1      -0.001051332776
  2      -0.001529328643
  3      -0.000382125310
  4       0.002097178788
  5       0.000050858622
  6      -0.000028974590
  7      -0.000135943710
  8       0.000000065367
  9      -0.000356233706
 10       0.000941090526
 11      -0.000000523657
 12       0.001399920950
 13       0.000141151607
 14      -0.000000045528
 15      -0.000057474156
 16       0.000000003639
 17      -0.000000015388
 18       0.000066703673
 19       0.000028954640
 20       0.000155292191
 21       0.000000093285
 22      -0.000000043315
 23      -0.000315746050
 24      -0.000219009111
 25      -0.000000009344
 26      -0.000086228428
 27      -0.000011154944
 28      -0.000000028440
 29       0.000000001827
 30      -0.000080488885
 31      -0.000091012022
 32       0.435114606811
 33       0.639378119659
 34       0.037684929183
 35      -0.032307948125
 36       0.006690288499
 37      -0.000202696963
 38       0.002097310177
 39      -0.000001240359
 40      -0.000211434873
 41      -0.005686169250
 42       0.000003273293
 43       0.001383195057
 44      -0.000187694210
 45       0.000000196983
 46      -0.000282786490
 47       0.000000018779
 48      -0.000000138809
 49       0.000234629486
 50       0.000108928213
 51       0.001669961270
 52      -0.000000114311
 53       0.000000887001
 54      -0.001254098302
 55      -0.000611325306
 56      -0.000000232975
 57      -0.000069195120
 58       0.000151979833
 59       0.000000108074
 60       0.000000027595
 61      -0.000227583584
 62       0.000289973302
 63      -0.000015827158
 64      -0.000028512939
 65      -0.000186334033
 66       0.001816532536
 67      -0.000229038772
 68       0.000077879640
 69      -0.000026956137
 70       0.000000020419
 71      -0.000625192670
 72      -0.000861979017
 73       0.000000405753
 74      -0.001180830724
 75      -0.000538789116
 76       0.000000169040
 77      -0.000074482451
 78       0.000000036299
 79      -0.000000066294
 80       0.000014775607
 81      -0.000051035852
 82       0.000151004480
 83      -0.000000256243
 84       0.000000005403
 85      -0.000334938402
 86       0.000395684063
 87       0.000000057671
 88      -0.000015525179
 89      -0.000042002618
 90       0.000000003832
 91       0.000000017373
 92      -0.000026750528
 93      -0.000055167025
 94       0.000012545249
 95      -0.000063599958
 96       0.000844370752
 97      -0.002483029379
 98      -0.001358272712
 99      -0.000110898150
100      -0.000091318104
101       0.000000033583
102       0.000079657733
103       0.000888258520
104       0.000000043135
105       0.001857831057
106      -0.000059279953
107       0.000000454327
108      -0.000037984589
109       0.000000050693
110      -0.000000012428
111       0.000051915479
112      -0.000007190233
113       0.000545545100
114      -0.000000204646
115       0.000000304187
116      -0.000622191848
117       0.000162175900
118      -0.000000008461
119      -0.000023744196
120      -0.000007064666
121      -0.000000067451
122      -0.000000018544
123      -0.000056951446
124      -0.000121375309
125       0.000001552622
126      -0.000006946690
127      -0.000188738447
128       0.001414875688
129      -0.001783969509
130      -0.000003520293
131      -0.000026502485
132      -0.000000001791
133      -0.000651439205
134       0.000612109546
135       0.000000104215
136       0.000230843086
137      -0.000185509402
138      -0.000000187911
139      -0.000027216448
140      -0.000000018303
141      -0.000000008828
142       0.000011907756
143      -0.000011585527
144      -0.000118792650
145      -0.000000025581
146       0.000000060823
147      -0.000033839906
148      -0.000369715634
149      -0.000000008478
150       0.000030293699
151      -0.000026354800
152      -0.000000006064
153      -0.000000018392
154      -0.000024155862
155      -0.000032157287
156       0.000036549209
157      -0.000204161875
158      -0.000621876200
159       0.004544992845
160      -0.000719498342
161      -0.000081301667
162      -0.000063173482
163       0.000000022441
164      -0.005172842488
165      -0.006194122018
166       0.000002948326
167       0.004617733988
168       0.002620858957
169      -0.000000904919
170      -0.000281317248
171      -0.000000209597
172      -0.000000186693
173       0.000072943278
174       0.000452264232
175      -0.001255195561
176      -0.000002432968
177      -0.000000922671
178      -0.000276148541
179       0.004802361866
180      -0.000000610573
181       0.000369188276
182       0.000508316460
183      -0.000000422599
184       0.000000127124
185       0.000154827889
186       0.000143666860
187       0.000026343414
188      -0.000132894523
189      -0.001761150730
190       0.007051949992
191      -0.003369951314
192      -0.000173114780
193       0.000074114297
194      -0.000000058627
195       0.005047899404
196      -0.002198171470
197       0.000001817026
198       0.000482914266
199      -0.000069079574
200       0.000000243783
201      -0.000269314186
202       0.000000243768
203      -0.000000117338
204       0.000322471708
205      -0.000274210345
206      -0.001616344686
207       0.000001448704
208      -0.000000753514
209       0.001891076393
210      -0.001595031565
211      -0.000000336846
212      -0.000502731974
213       0.000145468084
214       0.000000381873
215      -0.000000303403
216      -0.000352048793
217       0.000533123278
218      -0.000026039382
219      -0.000031179234
220      -0.000027352653
221      -0.000005012001
222       0.000009824364
223      -0.000000449188
224      -0.000026136523
225      -0.000031660662
226      -0.000027552080
227      -0.000004949055
228       0.000009852352
229       0.000000592244
230       0.000001367208
231       0.000077179049
232       0.000039637690
233       0.000026699506
234      -0.000034419038
235      -0.000000024894
236       0.000001040757
237       0.000001069791
238       0.000289612761
239      -0.000015490518
240      -0.000010055175
241       0.000003866399
242       0.000000998819
243       0.000001132741
244       0.000289469917
245      -0.000015520372
246      -0.000010024957
247      -0.000003866639
248       0.000045981534
249       0.000390977351
250       0.001108907679
251      -0.000037906973
252       0.000053337075
253       0.000047743959
254       0.000040503111
255      -0.000212763484
256       0.000930351358
257      -0.000332086404
258      -0.000036909499
259      -0.000000008446
260       0.000045978483
261       0.000390885348
262       0.001109204446
263      -0.000037886511
264       0.000053287869
265      -0.000047828276
 Sym=     1a
 Ene= -1.91716921992403E+01
 Spin= Alpha
 Occup= 2.000000
  1       0.435117868611
  2       0.639330417603
  3       0.038220641838
  4      -0.033850722632
  5       0.005340719380
  6      -0.000426444248
  7       0.002037351516
  8      -0.000001132237
  9       0.001855774011
 10      -0.005590286774
 11       0.000003191291
 12       0.001076457751
 13      -0.000897008185
 14       0.000000735180
 15      -0.000299854666
 16       0.000000100261
 17      -0.000000114623
 18       0.000307247547
 19       0.000004044424
 20       0.001865414555
 21      -0.000000611959
 22       0.000000786864
 23      -0.001746079810
 24       0.000028552754
 25      -0.000000217713
 26       0.000000384040
 27       0.000177392973
 28       0.000000126346
 29      -0.000000043587
 30      -0.000073415261
 31       0.000389119922
 32       0.001049087601
 33       0.001554988464
 34      -0.000172091509
 35       0.001946808050
 36       0.000019629498
 37       0.000076420921
 38      -0.000119666491
 39       0.000000075736
 40       0.000059426137
 41       0.001030877259
 42      -0.000000577425
 43      -0.000491467339
 44      -0.000177644738
 45      -0.000000010971
 46      -0.000059726041
 47      -0.000000050001
 48       0.000000008927
 49       0.000086877924
 50       0.000001979399
 51       0.000187996723
 52      -0.000000056934
 53      -0.000000093024
 54      -0.000477951869
 55       0.000066380608
 56      -0.000000005855
 57       0.000078766164
 58       0.000019237354
 59      -0.000000036251
 60      -0.000000004069
 61       0.000114589669
 62       0.000016016852
 63      -0.000015120749
 64      -0.000028886476
 65      -0.000154975327
 66       0.001586360576
 67      -0.000322920388
 68      -0.000083014710
 69      -0.000054667522
 70       0.000000022032
 71       0.000937484720
 72      -0.000500493247
 73       0.000000362386
 74       0.001197502976
 75      -0.000086833703
 76       0.000000265991
 77      -0.000074412199
 78      -0.000000023707
 79      -0.000000068111
 80      -0.000015566771
 81       0.000056169411
 82       0.000160893295
 83       0.000000275390
 84       0.000000060081
 85      -0.000018161257
 86      -0.000538054230
 87       0.000000040996
 88       0.000027249864
 89      -0.000028776343
 90       0.000000006998
 91      -0.000000006502
 92       0.000054045185
 93      -0.000008213075
 94       0.000018240575
 95      -0.000089562036
 96      -0.002190213646
 97       0.007996893429
 98      -0.005562718585
 99       0.000187216242
100       0.000295221621
101      -0.000000097543
102      -0.003875311422
103      -0.004786909408
104       0.000001335015
105      -0.000569870402
106      -0.000229271613
107      -0.000001489880
108      -0.000210222392
109      -0.000000126673
110      -0.000000077191
111       0.000188318131
112       0.000375443165
113      -0.002339272961
114      -0.000001079249
115      -0.000000888474
116       0.000240329273
117       0.002352904928
118      -0.000000299529
119       0.000462273113
120       0.000354165746
121       0.000000038105
122       0.000000339347
123      -0.000171799034
124       0.000607030371
125       0.000004595096
126      -0.000024291568
127       0.000591550437
128      -0.001181895089
129       0.000748199777
130      -0.000179829336
131       0.000004659799
132       0.000000115625
133       0.001069435567
134      -0.000557126003
135      -0.000000995215
136       0.000106092615
137       0.000891314054
138       0.000000519975
139      -0.000032901368
140      -0.000000031317
141      -0.000000053439
142       0.000066469774
143       0.000103242509
144       0.000948454728
145       0.000000015767
146       0.000000651083
147      -0.001054417639
148      -0.000428588410
149      -0.000000009157
150      -0.000090427376
151       0.000009930615
152      -0.000000054540
153      -0.000000027167
154      -0.000206982644
155       0.000051054991
156       0.000035020861
157      -0.000196819969
158      -0.001138348607
159       0.007088704922
160      -0.000438664996
161       0.000042105869
162      -0.000018642438
163       0.000000026777
164       0.008128299429
165      -0.004811073092
166       0.000003465835
167      -0.004163166870
168       0.000950448619
169      -0.000000896514
170      -0.000328835759
171       0.000000307921
172      -0.000000160800
173       0.000351198799
174      -0.000372630438
175      -0.001563794004
176       0.000003191948
177      -0.000000596637
178       0.002617937226
179      -0.004685046365
180      -0.000000677973
181      -0.000569777083
182       0.000402883664
183      -0.000000168987
184      -0.000000439015
185      -0.000231085437
186       0.000057265466
187       0.000010116697
188      -0.000050993590
189       0.000513081783
190      -0.001002345750
191      -0.001391762817
192       0.000164587328
193       0.000000029218
194       0.000000020890
195      -0.000611983661
196       0.000197653608
197      -0.000000280334
198      -0.001044326536
199      -0.000407229555
200       0.000000143083
201      -0.000036460062
202      -0.000000003641
203      -0.000000016676
204       0.000028153260
205       0.000035270365
206       0.000375948596
207       0.000000148879
208       0.000000084081
209      -0.000318996813
210      -0.000360846340
211      -0.000000047444
212       0.000022786162
213       0.000026793850
214      -0.000000000325
215      -0.000000059680
216       0.000105087407
217       0.000026362877
218       0.000036549597
219       0.000945284185
220       0.001344139951
221       0.000054726761
222      -0.000079565035
223      -0.000029233559
224       0.000036508457
225       0.000945323127
226       0.001346193701
227       0.000054749038
228      -0.000079581163
229       0.000029270075
230       0.000118366461
231       0.000673972044
232      -0.000528327063
233      -0.000024480385
234      -0.000104296683
235      -0.000000265958
236      -0.000040257683
237      -0.000397061282
238       0.000518367727
239      -0.000132416766
240      -0.000084849361
241       0.000037551332
242      -0.000040544232
243      -0.000398605970
244       0.000519313671
245      -0.000132293354
246      -0.000084926703
247      -0.000037837208
248      -0.000022356711
249      -0.000088882371
250       0.000011439565
251       0.000009824865
252       0.000033460859
253       0.000008039566
254       0.000044954184
255       0.000383316766
256      -0.000425669037
257       0.000016063443
258       0.000077559339
259      -0.000000067324
260      -0.000022392448
261      -0.000089066883
262       0.000011527166
263       0.000009821528
264       0.000033464061
265      -0.000008132927
 Sym=     1a
 Ene= -1.91088522014689E+01
 Spin= Alpha
 Occup= 2.000000
  1       0.000017450624
  2       0.000015882376
  3      -0.000140569017
  4       0.001102040516
  5       0.001170218901
  6      -0.000054823169
  7      -0.000034580366
  8       0.000000016768
  9      -0.000318548284
 10       0.000735542865
 11      -0.000000473772
 12       0.001129880209
 13       0.001991108784
 14      -0.000000676405
 15      -0.000060545931
 16       0.000000104757
 17      -0.000000006140
 18       0.000064508653
 19       0.000010784054
 20       0.000095234205
 21       0.000000048584
 22      -0.000000080249
 23      -0.000267464721
 24      -0.000270198276
 25      -0.000000068934
 26      -0.000079997117
 27       0.000032119996
 28      -0.000000061443
 29      -0.000000067834
 30       0.000003754685
 31      -0.000076971390
 32       0.000018023321
 33       0.000017468634
 34      -0.000132035811
 35       0.001083663814
 36       0.000556739937
 37       0.000069343803
 38      -0.000007527020
 39       0.000000001504
 40      -0.000010666613
 41       0.000703737710
 42      -0.000000363242
 43      -0.001881900257
 44       0.001329982319
 45      -0.000000881323
 46      -0.000062844705
 47      -0.000000042279
 48      -0.000000035202
 49       0.000054345327
 50       0.000033485191
 51       0.000121340375
 52      -0.000000000631
 53      -0.000000053426
 54      -0.000346536646
 55       0.000030236877
 56      -0.000000064509
 57       0.000063369260
 58       0.000057568610
 59      -0.000000096890
 60       0.000000018561
 61       0.000058086749
 62      -0.000049067711
 63       0.435079949446
 64       0.639488894761
 65       0.036684147486
 66      -0.031571366861
 67       0.012809157394
 68       0.000360029751
 69      -0.002291527123
 70       0.000001279209
 71      -0.001064525355
 72       0.006576229967
 73      -0.000003723354
 74       0.000142770258
 75      -0.000968684086
 76       0.000000634396
 77      -0.000105784171
 78       0.000000031123
 79      -0.000000269545
 80      -0.000298199090
 81      -0.000097890794
 82       0.000633176114
 83      -0.000000197699
 84       0.000001380742
 85       0.001355083450
 86       0.000456454739
 87       0.000000163129
 88       0.000017770242
 89      -0.000120948505
 90       0.000000196132
 91       0.000000065462
 92      -0.000067106443
 93       0.000127638089
 94       0.000010543601
 95      -0.000052273969
 96       0.000714861746
 97      -0.002496333525
 98      -0.004624998633
 99      -0.000074894259
100      -0.000094998682
101      -0.000000016820
102      -0.000357251774
103       0.001150049334
104      -0.000000352470
105      -0.000186477003
106       0.000190712564
107      -0.000000672683
108      -0.000044279723
109       0.000000046111
110      -0.000000059040
111       0.000068037173
112      -0.000038696002
113       0.000516393878
114      -0.000000181310
115       0.000000042947
116      -0.000554480276
117       0.000561747647
118      -0.000000042270
119       0.000055149901
120       0.000001046472
121       0.000000008988
122       0.000000040273
123      -0.000036289075
124      -0.000088985240
125       0.000000129769
126      -0.000000004454
127      -0.000319967406
128       0.001963820878
129       0.001588366301
130       0.000034019248
131      -0.000051905634
132      -0.000000054994
133      -0.001082085343
134       0.001023812212
135       0.000000441180
136      -0.000493714451
137       0.000146009346
138       0.000000030239
139      -0.000023793494
140       0.000000052823
141      -0.000000022309
142       0.000020133201
143      -0.000035630155
144      -0.000284227853
145      -0.000000207873
146      -0.000000022575
147       0.000066082006
148      -0.000403094749
149      -0.000000011340
150       0.000019794530
151      -0.000022628205
152      -0.000000015376
153      -0.000000006137
154      -0.000021470660
155      -0.000054447577
156       0.000031620608
157      -0.000205582633
158       0.000418246370
159       0.005442641300
160      -0.003529886598
161      -0.000116776603
162       0.000785770175
163      -0.000000426634
164      -0.001462385533
165       0.008028399050
166      -0.000004593126
167       0.000765098036
168      -0.006024984757
169       0.000003298161
170      -0.000220808430
171       0.000000046125
172      -0.000000404417
173      -0.000329929337
174      -0.000109434124
175      -0.001587168140
176       0.000000571735
177      -0.000004094434
178      -0.004739020400
179      -0.001343035818
180       0.000000354688
181       0.000046317605
182      -0.000250798696
183       0.000000021284
184       0.000000016913
185       0.000125945172
186      -0.000239830923
187       0.000007477263
188      -0.000036358072
189       0.000358118785
190      -0.001083246969
191      -0.003388963736
192       0.000166126533
193       0.000005649821
194       0.000000030565
195      -0.000776037758
196       0.000298571477
197      -0.000000305249
198      -0.000169789338
199      -0.000058040877
200       0.000000054014
201      -0.000032725475
202      -0.000000013512
203      -0.000000012043
204       0.000014779447
205       0.000049062034
206       0.000232690405
207       0.000000083531
208       0.000000109987
209      -0.000153191931
210      -0.000236990018
211      -0.000000026192
212      -0.000011758092
213       0.000018304220
214      -0.000000013659
215      -0.000000053374
216       0.000031040711
217       0.000004589950
218      -0.000047950324
219       0.000142569375
220       0.001213427409
221      -0.000090669927
222       0.000001193511
223       0.000002754383
224      -0.000048096305
225       0.000143112451
226       0.001213899315
227      -0.000090709331
228       0.000001107822
229      -0.000002883286
230      -0.000014862434
231      -0.000059837653
232       0.000037936530
233       0.000035291428
234      -0.000005541310
235       0.000000026585
236       0.000006903822
237       0.000047775846
238      -0.000168026992
239       0.000008823608
240       0.000009289977
241      -0.000004384781
242       0.000006935690
243       0.000048242373