
                                 *****************
                                 * O   R   C   A *
                                 *****************

                                            #,                                       
                                            ###                                      
                                            ####                                     
                                            #####                                    
                                            ######                                   
                                           ########,                                 
                                     ,,################,,,,,                         
                               ,,#################################,,                 
                          ,,##########################################,,             
                       ,#########################################, ''#####,          
                    ,#############################################,,   '####,        
                  ,##################################################,,,,####,       
                ,###########''''           ''''###############################       
              ,#####''   ,,,,##########,,,,          '''####'''          '####       
            ,##' ,,,,###########################,,,                        '##       
           ' ,,###''''                  '''############,,,                           
         ,,##''                                '''############,,,,        ,,,,,,###''
      ,#''                                            '''#######################'''  
     '                                                          ''''####''''         
             ,#######,   #######,   ,#######,      ##                                
            ,#'     '#,  ##    ##  ,#'     '#,    #''#        ,####,   ,####,        
            ##       ##  ##   ,#'  ##            #'  '#       #'       #'  '#        
            ##       ##  #######   ##           ,######,      #####,   #    #        
            '#,     ,#'  ##    ##  '#,     ,#' ,#      #,     #,   #   #,  ,#        
             '#######'   ##     ##  '#######'  #'      '#     '####' # '####'        



                #########################################################
                #                        -***-                          #
                #          Department of theory and spectroscopy        #
                #                                                       #
                #                      Frank Neese                      #
                #                                                       #
                #     Directorship, Architecture, Infrastructure        #
                #                    SHARK, DRIVERS                     #
                #        Core code/Algorithms in most modules           #
                #                                                       #
                #        Max Planck Institute fuer Kohlenforschung      #
                #                Kaiser Wilhelm Platz 1                 #
                #                 D-45470 Muelheim/Ruhr                 #
                #                      Germany                          #
                #                                                       #
                #                  All rights reserved                  #
                #                        -***-                          #
                #########################################################


                         Program Version 6.0.1  -  RELEASE   -


 With contributions from (in alphabetic order):
[Max-Planck-Institut fuer Kohlenforschung]                               
  Daniel Aravena         : Magnetic Suceptibility                        
  Michael Atanasov       : Ab Initio Ligand Field Theory (pilot matlab implementation)
  Alexander A. Auer      : GIAO ZORA, VPT2 properties, NMR spectrum      
  Ute Becker             : All parallelization in ORCA, NUMFREQ, NUMCALC 
  Giovanni Bistoni       : ED, misc. LED, open-shell LED, HFLD           
  Martin Brehm           : Molecular dynamics                            
  Dmytro Bykov           : pre 5.0 version of the SCF Hessian            
  Marcos Casanova-Páez   : Triplet and SCS-CIS(D). UHF-(DLPNO)-IP/EA/STEOM-CCSD. UHF-CVS-IP/STEOM-CCSD   
  Vijay G. Chilkuri      : MRCI spin determinant printing, contributions to CSF-ICE 
  Pauline Colinet        : FMM embedding                                 
  Dipayan Datta          : RHF DLPNO-CCSD density                        
  Achintya Kumar Dutta   : EOM-CC, STEOM-CC                              
  Nicolas Foglia         : Exact transition moments, OPA infrastructure, MCD improvements    
  Dmitry Ganyushin       : Spin-Orbit,Spin-Spin,Magnetic field MRCI      
  Miquel Garcia-Rates    : C-PCM and meta-GGA Hessian, CCSD/C-PCM, Gaussian charge scheme 
  Tiago L. C. Gouveia    : GS-ROHF, GS-ROCIS                             
  Yang Guo               : DLPNO-NEVPT2, F12-NEVPT2, CIM, IAO-localization        
  Andreas Hansen         : Spin unrestricted coupled pair/coupled cluster methods 
  Ingolf Harden          : AUTO-CI MPn and infrastructure                
  Benjamin Helmich-Paris : MC-RPA, TRAH-(SCF,CASSCF), AVAS, COSX integrals, SCF dyn. polar. 
  Lee Huntington         : MR-EOM, pCC                                   
  Robert Izsak           : Overlap fitted RIJCOSX, COSX-SCS-MP3, EOM     
  Riya Kayal             : Wick's Theorem for AUTO-CI, AUTO-CI UHF-CCSDT 
  Emily Kempfer          : AUTO-CI, RHF CISDT and CCSDT                  
  Christian Kollmar      : KDIIS, OOCD, Brueckner-CCSD(T), CCSD density, CASPT2, CASPT2-K, improved NEVPT2 
  Axel Koslowski         : Symmetry handling                             
  Simone Kossmann        : meta-GGA functionals, TD-DFT gradient, OOMP2, (MP2 Hessian; deprecated post 5.0) 
  Lucas Lang             : DCDCAS                                        
  Marvin Lechner         : AUTO-CI (C++ implementation), FIC-MRCC        
  Spencer Leger          : CASSCF response                               
  Dagmar Lenk            : GEPOL surface, SMD, ORCA-2-JSON               
  Dimitrios Liakos       : Extrapolation schemes; Compound Job, initial MDCI parallelization 
  Dimitrios Manganas     : Further ROCIS development; embedding schemes. LFT, Crystal Embedding 
  Dimitrios Pantazis     : SARC Basis sets                               
  Anastasios Papadopoulos: AUTO-CI, single reference methods and gradients 
  Taras Petrenko         : pre 6.0 DFT Hessian and TD-DFT gradient, (ASA, deprecated), ECA, 1-Electron XAS/XES, NRVS 
  Peter Pinski           : DLPNO-MP2, DLPNO-MP2 Gradient                 
  Christoph Reimann      : Effective Core Potentials                     
  Marius Retegan         : Local ZFS, SOC                                
  Christoph Riplinger    : Optimizer, TS searches, QM/MM, DLPNO-CCSD(T), (RO)-DLPNO pert. Triples 
  Michael Roemelt        : Original ROCIS implementation                 
  Masaaki Saitow         : Open-shell DLPNO-CCSD energy and density      
  Barbara Sandhoefer     : DKH picture change effects                    
  Kantharuban Sivalingam : CASSCF convergence/infrastructure, NEVPT2 and variants, FIC-MRCI 
  Bernardo de Souza      : ESD, SOC TD-DFT                               
  Georgi L. Stoychev     : AutoAux, RI-MP2 NMR, DLPNO-MP2 response, X2C  
  Van Anh Tran           : RI-MP2 g-tensors                              
  Willem Van den Heuvel  : Paramagnetic NMR                              
  Zikuan Wang            : NOTCH, Electric field optimization            
  Frank Wennmohs         : Technical directorship and infrastructure     
  Hang Xu                : AUTO-CI-Response properties                   
                                                                         
[FACCTs GmbH]                                                            
  Markus Bursch, Miquel Garcia-Rates, Christoph Riplinger, Bernardo de Souza, Georgi L. Stoychev 
                                                                 
  APM, Basis sets (HGBS, AHGBS, def-TZVP (Ac-Lr), def2-XVPD (La-Lu)), CI-OPT, improved COSX, DLPNO-Multilevel,           
  DOCKER, DRACO, updates on ESD, GOAT, IRC, LR-CPCM, MBIS, meta-GGA TD-DFT gradient, ML-optimized integration grids, 
  MM, NACMEs, nearIR, NEB, NEB-TS, NL-DFT gradient (VV10), 2- and 3-layer-ONIOM, interface openCOSMO-RS, QMMM,   
  Crystal-QMMM, SF, symmetry and pop. for TD-DFT, r2SCAN hybrids, SOLVATOR                                   
                                                                         
[Other institutions]                                                     
  V. Asgeirsson          : NEB                                           
  Christoph Bannwarth    : sTDA-DFT, sTD-DFT, PBEh-3c, B97-3c, D3        
  Sebastian Ehlert       : rSCAN, r2SCAN, r2SCAN-3c, D4, dhf basis sets  
  Marvin Friede          : D4 for Fr, Ra, Ac-Lr                          
  Lars Goerigk           : TD-DFT with DH, B97 family of functionals     
  Stefan Grimme          : VdW corrections, initial TS optimization, DFT functionals, gCP, sTDA/sTD-DF 
  Waldemar Hujo          : DFT-NL                                        
  H. Jonsson             : NEB                                           
  Holger Kruse           : gCP                                           
  Marcel Mueller         : wB97X-3c, vDZP basis set                      
  Hagen Neugebauer       : wr2SCAN                                       
  Tobias Risthaus        : range-separated hybrid DFT                    
  Lukas Wittmann         : regularized MP2, r2SCAN double-hybrids, wr2SCAN        
                                                                         
We gratefully acknowledge several colleagues who have allowed us to      
interface, adapt or use parts of their codes:                            
  Ed Valeev, F. Pavosevic, A. Kumar             : LibInt (2-el integral package), F12 methods 
  Garnet Chan, S. Sharma, J. Yang, R. Olivares  : DMRG                   
  Ulf Ekstrom                                   : XCFun DFT Library      
  Mihaly Kallay                                 : mrcc  (arbitrary order and MRCC methods)
  Frank Weinhold                                : gennbo (NPA and NBO analysis)           
  Simon Mueller                                 : openCOSMO-RS                            
  Christopher J. Cramer and Donald G. Truhlar   : smd solvation model                     
  S Lehtola, MJT Oliveira, MAL Marques          : LibXC Library                           
  Liviu Ungur et al                             : ANISO software                          


 Your calculation uses the libint2 library for the computation of 2-el integrals
 For citations please refer to: http://libint.valeyev.net

 Your ORCA version has been built with support for libXC version: 6.2.2
 For citations please refer to: https://libxc.gitlab.io

 This ORCA versions uses:
   CBLAS   interface :  Fast vector & matrix operations
   LAPACKE interface :  Fast linear algebra routines
   SCALAPACK package :  Parallel linear algebra routines
   Shared memory     :  Shared parallel matrices
   BLAS/LAPACK       :  OpenBLAS 0.3.27  USE64BITINT DYNAMIC_ARCH NO_AFFINITY SkylakeX SINGLE_THREADED
        Core in use  :  SkylakeX
   Copyright (c) 2011-2014, The OpenBLAS Project


NOTE: MaxCore=5000 MB was set to SCF,MP2,MDCI,CIPSI,MRCI and CIS
      => If you want to overwrite this, your respective input block should be placed after the MaxCore statement
Warning: RI is on but no J-basis has been assigned. Assigning Def2/J (nothing to worry about!)
================================================================================

----- Orbital basis set information -----
Your calculation utilizes the basis: def2-TZVP
   F. Weigend and R. Ahlrichs, Phys. Chem. Chem. Phys. 7, 3297 (2005).

----- AuxJ basis set information -----
Your calculation utilizes the auxiliary basis: def2/J
   F. Weigend, Phys. Chem. Chem. Phys. 8, 1057 (2006).

================================================================================
                                        WARNINGS
                       Please study these warnings very carefully!
================================================================================


================================================================================
                                       INPUT FILE
================================================================================
NAME = EMC.inp
|  1> ! B3LYP def2-TZVP TightSCF
|  2> 
|  3> %maxcore 5000
|  4> 
|  5> %pal
|  6> nprocs 20
|  7> end
|  8> 
|  9> * xyz 0 1
| 10> O           0.66580672284353     -0.45075943218760      0.00007662235310
| 11>   O          -1.47265268743114     -0.77916767228170      0.00003889522228
| 12>   O          -0.70737712073084      1.35242998679934     -0.00105651684733
| 13>   C           1.82118850438721      0.41970651042198     -0.00021897916842
| 14>   C           3.05153742747630     -0.45823037581205     -0.00020423052285
| 15>   C          -0.52082132673025      0.16180663131959     -0.00039344869800
| 16>   C          -2.82036388654811     -0.28455358490689     -0.00039762428973
| 17>   H           1.77590000830035      1.06033192646663     -0.88244061653073
| 18>   H           1.77615087651848      1.06059256258111      0.88183310405866
| 19>   H           3.94631972342973      0.16731773853903      0.00021167200116
| 20>   H           3.07753579455193     -1.09566193066220      0.88470933430767
| 21>   H           3.07798525278333     -1.09528353878009     -0.88536774082887
| 22>   H          -3.00724588270878      0.31892384142160      0.88745800698419
| 23>   H          -3.45176253692118     -1.16899808983519      0.00013615881637
| 24>   H          -3.00710086922054      0.31774542691643     -0.88908463685750
| 25> *
| 26> 
| 27>                          ****END OF INPUT****
================================================================================

                       ****************************
                       * Single Point Calculation *
                       ****************************

---------------------------------
CARTESIAN COORDINATES (ANGSTROEM)
---------------------------------
  O      0.665807   -0.450759    0.000077
  O     -1.472653   -0.779168    0.000039
  O     -0.707377    1.352430   -0.001057
  C      1.821189    0.419707   -0.000219
  C      3.051537   -0.458230   -0.000204
  C     -0.520821    0.161807   -0.000393
  C     -2.820364   -0.284554   -0.000398
  H      1.775900    1.060332   -0.882441
  H      1.776151    1.060593    0.881833
  H      3.946320    0.167318    0.000212
  H      3.077536   -1.095662    0.884709
  H      3.077985   -1.095284   -0.885368
  H     -3.007246    0.318924    0.887458
  H     -3.451763   -1.168998    0.000136
  H     -3.007101    0.317745   -0.889085

----------------------------
CARTESIAN COORDINATES (A.U.)
----------------------------
  NO LB      ZA    FRAG     MASS         X           Y           Z
   0 O     8.0000    0    15.999    1.258192   -0.851812    0.000145
   1 O     8.0000    0    15.999   -2.782910   -1.472414    0.000074
   2 O     8.0000    0    15.999   -1.336749    2.555722   -0.001997
   3 C     6.0000    0    12.011    3.441548    0.793130   -0.000414
   4 C     6.0000    0    12.011    5.766570   -0.865930   -0.000386
   5 C     6.0000    0    12.011   -0.984210    0.305770   -0.000744
   6 C     6.0000    0    12.011   -5.329715   -0.537728   -0.000751
   7 H     1.0000    0     1.008    3.355965    2.003737   -1.667571
   8 H     1.0000    0     1.008    3.356439    2.004229    1.666423
   9 H     1.0000    0     1.008    7.457464    0.316185    0.000400
  10 H     1.0000    0     1.008    5.815700   -2.070501    1.671858
  11 H     1.0000    0     1.008    5.816549   -2.069786   -1.673103
  12 H     1.0000    0     1.008   -5.682871    0.602679    1.677053
  13 H     1.0000    0     1.008   -6.522886   -2.209086    0.000257
  14 H     1.0000    0     1.008   -5.682597    0.600452   -1.680126

--------------------------------
INTERNAL COORDINATES (ANGSTROEM)
--------------------------------
 O      0   0   0     0.000000000000     0.00000000     0.00000000
 O      1   0   0     2.163529667691     0.00000000     0.00000000
 O      2   1   0     2.264808264096    61.52026744     0.00000000
 C      1   2   3     1.446588436891   151.73642264     0.00000000
 C      4   1   2     1.511466721094   107.49517172   180.01961063
 C      3   2   1     1.205150396651    28.65402333     0.00000000
 C      2   1   3     1.435607454078   151.11586961     0.00000000
 H      4   1   2     1.091222703663   108.67985315   301.44511813
 H      4   1   2     1.091228297517   108.67956999    58.59917838
 H      5   4   1     1.091762782611   109.53193496   180.03541308
 H      5   4   1     1.090901883503   111.02700742   299.66508270
 H      5   4   1     1.090894431138   111.03440559    60.39482210
 H      7   2   1     1.089677707656   110.58280602   299.45834370
 H      7   2   1     1.086695276016   105.36947084   180.00446454
 H      7   2   1     1.089678579512   110.58267921    60.55082004

---------------------------
INTERNAL COORDINATES (A.U.)
---------------------------
 O      0   0   0     0.000000000000     0.00000000     0.00000000
 O      1   0   0     4.088478554549     0.00000000     0.00000000
 O      2   1   0     4.279867364982    61.52026744     0.00000000
 C      1   2   3     2.733655974221   151.73642264     0.00000000
 C      4   1   2     2.856258163403   107.49517172   180.01961063
 C      3   2   1     2.277404199857    28.65402333     0.00000000
 C      2   1   3     2.712904924023   151.11586961     0.00000000
 H      4   1   2     2.062112061041   108.67985315   301.44511813
 H      4   1   2     2.062122631892   108.67956999    58.59917838
 H      5   4   1     2.063132662343   109.53193496   180.03541308
 H      5   4   1     2.061505798799   111.02700742   299.66508270
 H      5   4   1     2.061491715871   111.03440559    60.39482210
 H      7   2   1     2.059192441708   110.58280602   299.45834370
 H      7   2   1     2.053556462696   105.36947084   180.00446454
 H      7   2   1     2.059194089278   110.58267921    60.55082004

---------------------
BASIS SET INFORMATION
---------------------
There are 3 groups of distinct atoms

 Group   1 Type O   : 11s6p2d1f contracted to 5s3p2d1f pattern {62111/411/11/1}
 Group   2 Type C   : 11s6p2d1f contracted to 5s3p2d1f pattern {62111/411/11/1}
 Group   3 Type H   : 5s1p contracted to 3s1p pattern {311/1}

Atom   0O    basis set group =>   1
Atom   1O    basis set group =>   1
Atom   2O    basis set group =>   1
Atom   3C    basis set group =>   2
Atom   4C    basis set group =>   2
Atom   5C    basis set group =>   2
Atom   6C    basis set group =>   2
Atom   7H    basis set group =>   3
Atom   8H    basis set group =>   3
Atom   9H    basis set group =>   3
Atom  10H    basis set group =>   3
Atom  11H    basis set group =>   3
Atom  12H    basis set group =>   3
Atom  13H    basis set group =>   3
Atom  14H    basis set group =>   3
---------------------------------
AUXILIARY/J BASIS SET INFORMATION
---------------------------------
There are 3 groups of distinct atoms

 Group   1 Type O   : 12s5p4d2f1g contracted to 6s4p3d1f1g pattern {711111/2111/211/2/1}
 Group   2 Type C   : 12s5p4d2f1g contracted to 6s4p3d1f1g pattern {711111/2111/211/2/1}
 Group   3 Type H   : 5s2p1d contracted to 3s1p1d pattern {311/2/1}

Atom   0O    basis set group =>   1
Atom   1O    basis set group =>   1
Atom   2O    basis set group =>   1
Atom   3C    basis set group =>   2
Atom   4C    basis set group =>   2
Atom   5C    basis set group =>   2
Atom   6C    basis set group =>   2
Atom   7H    basis set group =>   3
Atom   8H    basis set group =>   3
Atom   9H    basis set group =>   3
Atom  10H    basis set group =>   3
Atom  11H    basis set group =>   3
Atom  12H    basis set group =>   3
Atom  13H    basis set group =>   3
Atom  14H    basis set group =>   3


           ************************************************************
           *        Program running with 20 parallel MPI-processes    *
           *              working on a common directory               *
           ************************************************************
------------------------------------------------------------------------------
                             ORCA STARTUP CALCULATIONS
                           -- RI-GTO INTEGRALS CHOSEN --
------------------------------------------------------------------------------
------------------------------------------------------------------------------
                   ___                                                        
                  /   \      - P O W E R E D   B Y -                         
                 /     \                                                     
                 |  |  |   _    _      __       _____    __    __             
                 |  |  |  | |  | |    /  \     |  _  \  |  |  /  |          
                  \  \/   | |  | |   /    \    | | | |  |  | /  /          
                 / \  \   | |__| |  /  /\  \   | |_| |  |  |/  /          
                |  |  |   |  __  | /  /__\  \  |    /   |      \           
                |  |  |   | |  | | |   __   |  |    \   |  |\   \          
                \     /   | |  | | |  |  |  |  | |\  \  |  | \   \       
                 \___/    |_|  |_| |__|  |__|  |_| \__\ |__|  \__/        
                                                                              
                      - O R C A' S   B I G   F R I E N D -                    
                                      &                                       
                       - I N T E G R A L  F E E D E R -                       
                                                                              
 v1 FN, 2020, v2 2021, v3 2022-2024                                           
------------------------------------------------------------------------------


----------------------
SHARK INTEGRAL PACKAGE
----------------------

Number of atoms                             ...     15
Number of basis functions                   ...    265
Number of shells                            ...    109
Maximum angular momentum                    ...      3
Integral batch strategy                     ... SHARK/LIBINT Hybrid
RI-J (if used) integral strategy            ... SPLIT-RIJ (Revised 2003 algorithm where possible)
Printlevel                                  ...      1
Contraction scheme used                     ... SEGMENTED contraction
Prescreening option                         ... SCHWARTZ
   Thresh                                   ... 2.500e-11
   Tcut                                     ... 2.500e-12
   Tpresel                                  ... 2.500e-12 
Coulomb Range Separation                    ... NOT USED
Exchange Range Separation                   ... NOT USED
Multipole approximations                    ... NOT USED
Finite Nucleus Model                        ... NOT USED
CABS basis                                  ... NOT available
Auxiliary Coulomb fitting basis             ... AVAILABLE
   # of basis functions in Aux-J            ...    431
   # of shells in Aux-J                     ...    145
   Maximum angular momentum in Aux-J        ...      4
Auxiliary J/K fitting basis                 ... NOT available
Auxiliary Correlation fitting basis         ... NOT available
Auxiliary 'external' fitting basis          ... NOT available

Checking pre-screening integrals            ... done (  0.0 sec) Dimension = 109
Check shell pair data                       ... done (  0.0 sec)
Shell pair information
Shell pair cut-off parameter TPreSel        ...   2.5e-12
Total number of shell pairs                 ...      5995
Shell pairs after pre-screening             ...      5264
Total number of primitive shell pairs       ...     17944
Primitive shell pairs kept                  ...     11859
          la=0 lb=0:   1503 shell pairs
          la=1 lb=0:   1509 shell pairs
          la=1 lb=1:    395 shell pairs
          la=2 lb=0:    726 shell pairs
          la=2 lb=1:    374 shell pairs
          la=2 lb=2:    101 shell pairs
          la=3 lb=0:    356 shell pairs
          la=3 lb=1:    184 shell pairs
          la=3 lb=2:     90 shell pairs
          la=3 lb=3:     26 shell pairs

Calculating one electron integrals          ... done (  0.0 sec)
Calculating RI/J V-Matrix + Cholesky decomp.... done (  0.0 sec)
Calculating Nuclear repulsion               ... done (  0.0 sec) ENN=    319.578524426077 Eh

Diagonalization of the overlap matrix:
Smallest eigenvalue                        ... 4.427e-04
Time for diagonalization                   ...    0.007 sec
Threshold for overlap eigenvalues          ... 1.000e-07
Number of eigenvalues below threshold      ... 0
Time for construction of square roots      ...    0.004 sec
Total time needed                          ...    0.017 sec

-------------------
DFT GRID GENERATION
-------------------

General Integration Accuracy     IntAcc      ... 4.388
Radial Grid Type                 RadialGrid  ... OptM3 with GC (2021)
Angular Grid (max. ang.)         AngularGrid ... 4 (Lebedev-302)
Angular grid pruning method      GridPruning ... 4 (adaptive)
Weight generation scheme         WeightScheme... mBecke (2022)
Basis function cutoff            BFCut       ... 1.0000e-11
Integration weight cutoff        WCut        ... 1.0000e-14
Partially contracted basis set               ... off
Rotationally invariant grid construction     ... off
Angular grids for H and He will be reduced by one unit

Total number of grid points                  ...    68316
Total number of batches                      ...     1075
Average number of points per batch           ...       63
Average number of grid points per atom       ...     4554

--------------------
COSX GRID GENERATION
--------------------

GRIDX 1
-------
General Integration Accuracy     IntAcc      ... 3.816
Radial Grid Type                 RadialGrid  ... OptM3 with GC (2021)
Angular Grid (max. ang.)         AngularGrid ... 1 (Lebedev-50)
Angular grid pruning method      GridPruning ... 4 (adaptive)
Weight generation scheme         WeightScheme... mBecke (2022)
Basis function cutoff            BFCut       ... 1.0000e-11
Integration weight cutoff        WCut        ... 1.0000e-14
Partially contracted basis set               ... on
Rotationally invariant grid construction     ... off
Angular grids for H and He will be reduced by one unit

Total number of grid points                  ...     8750
Total number of batches                      ...       78
Average number of points per batch           ...      112
Average number of grid points per atom       ...      583
UseSFitting                                  ... on

GRIDX 2
-------
General Integration Accuracy     IntAcc      ... 4.020
Radial Grid Type                 RadialGrid  ... OptM3 with GC (2021)
Angular Grid (max. ang.)         AngularGrid ... 2 (Lebedev-110)
Angular grid pruning method      GridPruning ... 4 (adaptive)
Weight generation scheme         WeightScheme... mBecke (2022)
Basis function cutoff            BFCut       ... 1.0000e-11
Integration weight cutoff        WCut        ... 1.0000e-14
Partially contracted basis set               ... on
Rotationally invariant grid construction     ... off
Angular grids for H and He will be reduced by one unit

Total number of grid points                  ...    18974
Total number of batches                      ...      156
Average number of points per batch           ...      121
Average number of grid points per atom       ...     1265
UseSFitting                                  ... on

GRIDX 3
-------
General Integration Accuracy     IntAcc      ... 4.338
Radial Grid Type                 RadialGrid  ... OptM3 with GC (2021)
Angular Grid (max. ang.)         AngularGrid ... 3 (Lebedev-194)
Angular grid pruning method      GridPruning ... 4 (adaptive)
Weight generation scheme         WeightScheme... mBecke (2022)
Basis function cutoff            BFCut       ... 1.0000e-11
Integration weight cutoff        WCut        ... 1.0000e-14
Partially contracted basis set               ... on
Rotationally invariant grid construction     ... off
Angular grids for H and He will be reduced by one unit

Total number of grid points                  ...    41671
Total number of batches                      ...      333
Average number of points per batch           ...      125
Average number of grid points per atom       ...     2778
UseSFitting                                  ... on
Initializing property integral containers    ... done (  0.0 sec)

SHARK setup successfully completed in   0.8 seconds

Maximum memory used throughout the entire STARTUP-calculation: 22.4 MB


           ************************************************************
           *        Program running with 20 parallel MPI-processes    *
           *              working on a common directory               *
           ************************************************************
-------------------------------------------------------------------------------
                                 ORCA GUESS
                   Start orbitals & Density for SCF / CASSCF
-------------------------------------------------------------------------------

------------
SCF SETTINGS
------------
Hamiltonian:
 Density Functional     Method          .... DFT(GTOs)
 Exchange Functional    Exchange        .... B88
   X-Alpha parameter    XAlpha          ....  0.666667
   Becke's b parameter  XBeta           ....  0.004200
 Correlation Functional Correlation     .... LYP
 LDA part of GGA corr.  LDAOpt          .... VWN-5
 Gradients option       PostSCFGGA      .... off
 Hybrid DFT is turned on
   Fraction HF Exchange ScalHFX         ....  0.200000
   Scaling of DF-GGA-X  ScalDFX         ....  0.720000
   Scaling of DF-GGA-C  ScalDFC         ....  0.810000
   Scaling of DF-LDA-C  ScalLDAC        ....  1.000000
   Perturbative correction              ....  0.000000
   NL short-range parameter             ....  4.800000
 RI-approximation to the Coulomb term is turned on
   Number of AuxJ basis functions       .... 431
   RIJ-COSX (HFX calculated with COS-X)).... on


General Settings:
 Integral files         IntName         .... EMC
 Hartree-Fock type      HFTyp           .... RHF
 Total Charge           Charge          ....    0
 Multiplicity           Mult            ....    1
 Number of Electrons    NEL             ....   56
 Basis Dimension        Dim             ....  265
 Nuclear Repulsion      ENuc            ....    319.5785244261 Eh

Convergence Acceleration:
 AO-DIIS                CNVDIIS         .... on
   Start iteration      DIISMaxIt       ....    12
   Startup error        DIISStart       ....  0.200000
   # of expansion vecs  DIISMaxEq       ....     5
   Bias factor          DIISBfac        ....   1.050
   Max. coefficient     DIISMaxC        ....  10.000
 MO-DIIS                CNVKDIIS        .... off
 Trust-Rad. Augm. Hess. CNVTRAH         .... auto
   Auto Start mean grad. ratio tolernc. ....  1.125000
   Auto Start start iteration           ....    50
   Auto Start num. interpolation iter.  ....    10
   Max. Number of Micro iterations      ....    24
   Max. Number of Macro iterations      .... Maxiter - #DIIS iter
   Number of Davidson start vectors     ....     2
   Converg. threshold    (grad. norm)   ....   1.000e-05
   Grad. Scal. Fac. for Micro threshold ....   0.100
   Minimum threshold for Micro iter.    ....   1.000e-02
   NR start threshold (gradient norm)   ....   1.000e-04
   Initial trust radius                 ....   0.400
   Minimum AH scaling param. (alpha)    ....   1.000
   Maximum AH scaling param. (alpha)    .... 1000.000
   Quad. conv. algorithm                .... NR
   White noise on init. David. guess    .... on
   Maximum white noise                  ....   0.010
   Pseudo random numbers                .... off
   Inactive MOs                         .... canonical
   Orbital update algorithm             .... Taylor
   Preconditioner                       .... Diag
   Full preconditioner red. dimension   ....   250
 SOSCF                  CNVSOSCF        .... on
   Start iteration      SOSCFMaxIt      ....   150
   Startup grad/error   SOSCFStart      ....  0.003300
   Hessian update       SOSCFHessUp     .... L-BFGS
 Level Shifting         CNVShift        .... on
   Level shift para.    LevelShift      ....    0.2500
   Turn off err/grad.   ShiftErr        ....    0.0010
 Zerner damping         CNVZerner       .... off
 Static damping         CNVDamp         .... on
   Fraction old density DampFac         ....    0.7000
   Max. Damping (<1)    DampMax         ....    0.9800
   Min. Damping (>=0)   DampMin         ....    0.0000
   Turn off err/grad.   DampErr         ....    0.1000

SCF Procedure:
 Maximum # iterations   MaxIter         ....   125
 SCF integral mode      SCFMode         .... Direct
   Integral package                     .... SHARK and LIBINT hybrid scheme
 Reset frequency        DirectResetFreq ....    20
 Integral Threshold     Thresh          ....  2.500e-11 Eh
 Primitive CutOff       TCut            ....  2.500e-12 Eh

Convergence Tolerance:
 Convergence Check Mode ConvCheckMode   .... Total+1el-Energy
 Convergence forced     ConvForced      .... 0
 Energy Change          TolE            ....  1.000e-08 Eh
 1-El. energy change                    ....  1.000e-05 Eh
 Orbital Gradient       TolG            ....  1.000e-05
 Orbital Rotation angle TolX            ....  1.000e-05
 DIIS Error             TolErr          ....  5.000e-07

------------------------------
INITIAL GUESS: MODEL POTENTIAL
------------------------------
Loading Hartree-Fock densities                     ... done
Calculating cut-offs                               ... done
Initializing the effective Hamiltonian             ... done
Setting up the integral package (SHARK)            ... done
Starting the Coulomb interaction                   ... done (   0.0 sec)
Making the grid                                    ... done (   0.1 sec)
Mapping shells                                     ... done
Starting the XC term evaluation                    ... done (   0.0 sec)
  promolecular density results
     # of electrons  =     55.994298420
     EX              =    -47.548719148
     EC              =     -1.914448025
     EX+EC           =    -49.463167174
Transforming the Hamiltonian                       ... done (   0.0 sec)
Diagonalizing the Hamiltonian                      ... done (   0.0 sec)
Back transforming the eigenvectors                 ... done (   0.0 sec)
Now organizing SCF variables                       ... done
                      ------------------
                      INITIAL GUESS DONE (   0.2 sec)
                      ------------------
             **** ENERGY FILE WAS UPDATED (EMC.en.tmp) ****
Finished Guess after   0.7 sec
Maximum memory used throughout the entire GUESS-calculation: 14.8 MB


           ************************************************************
           *        Program running with 20 parallel MPI-processes    *
           *              working on a common directory               *
           ************************************************************

-------------------------------------------------------------------------------------------
                                      ORCA LEAN-SCF
                              memory conserving SCF solver
-------------------------------------------------------------------------------------------

----------------------------------------D-I-I-S--------------------------------------------
Iteration    Energy (Eh)           Delta-E    RMSDP     MaxDP     DIISErr   Damp  Time(sec)
-------------------------------------------------------------------------------------------
               ***  Starting incremental Fock matrix formation  ***
    1    -382.6213412808935459     0.00e+00  1.46e-03  6.14e-02  3.20e-01  0.700   0.6
    2    -382.7477358036895225    -1.26e-01  9.57e-04  3.40e-02  1.24e-01  0.700   0.4
                               ***Turning on AO-DIIS***
    3    -382.7921275986138312    -4.44e-02  3.77e-04  9.61e-03  3.80e-02  0.700   0.4
    4    -382.8202404204561731    -2.81e-02  5.55e-04  1.15e-02  1.51e-02  0.000   0.4
    5    -382.8835966422973911    -6.34e-02  1.64e-04  5.47e-03  6.88e-03  0.000   0.4
                              *** Initializing SOSCF ***
---------------------------------------S-O-S-C-F--------------------------------------
Iteration    Energy (Eh)           Delta-E    RMSDP     MaxDP     MaxGrad    Time(sec)
--------------------------------------------------------------------------------------
    6    -382.8838879933543353    -2.91e-04  5.70e-05  1.52e-03  1.95e-03     0.4
               *** Restarting incremental Fock matrix formation ***
    7    -382.8839115578436463    -2.36e-05  4.81e-05  1.71e-03  6.77e-04     0.5
    8    -382.8838983634105375     1.32e-05  2.24e-05  1.01e-03  1.57e-03     0.5
    9    -382.8839166977992932    -1.83e-05  4.20e-06  1.81e-04  7.41e-05     0.5
   10    -382.8839165967645499     1.01e-07  2.25e-06  9.72e-05  1.10e-04     0.4
   11    -382.8839168084786593    -2.12e-07  8.80e-07  2.12e-05  1.02e-05     0.4
   12    -382.8839168075128896     9.66e-10  4.71e-07  1.09e-05  1.11e-05     0.4
                 **** Energy Check signals convergence ****

               *****************************************************
               *                     SUCCESS                       *
               *           SCF CONVERGED AFTER  12 CYCLES          *
               *****************************************************

Recomputing exchange energy using gridx3       ... done (    0.635 sec)
Old exchange energy                            :     -9.659088458 Eh
New exchange energy                            :     -9.659097997 Eh
Exchange energy change after final integration :     -0.000009539 Eh
Total energy after final integration           :   -382.883926346 Eh
             **** ENERGY FILE WAS UPDATED (EMC.en.tmp) ****

----------------
TOTAL SCF ENERGY
----------------

Total Energy       :       -382.88392634635375 Eh          -10418.80132 eV

Components:
Nuclear Repulsion  :        319.57852442607651 Eh            8696.17375 eV
Electronic Energy  :       -702.46244123358929 Eh          -19114.97481 eV
One Electron Energy:      -1155.54145957621472 Eh          -31443.88169 eV
Two Electron Energy:        453.07901834262537 Eh           12328.90688 eV

Virial components:
Potential Energy   :       -764.17714095045017 Eh          -20794.31717 eV
Kinetic Energy     :        381.29321460409642 Eh           10375.51585 eV
Virial Ratio       :          2.00417188578587

DFT components:
N(Alpha)           :       28.000010895312 electrons
N(Beta)            :       28.000010895312 electrons
N(Total)           :       56.000021790624 electrons
E(X)               :      -38.424949091036 Eh       
E(C)               :       -2.260161915654 Eh       
E(XC)              :      -40.685111006690 Eh       

---------------
SCF CONVERGENCE
---------------

  Last Energy change         ...   -9.6577e-10  Tolerance :   1.0000e-08
  Last MAX-Density change    ...    1.0902e-05  Tolerance :   1.0000e-07
  Last RMS-Density change    ...    4.7147e-07  Tolerance :   5.0000e-09
  Last DIIS Error            ...    1.9484e-03  Tolerance :   5.0000e-07
  Last Orbital Gradient      ...    1.1132e-05  Tolerance :   1.0000e-05
  Last Orbital Rotation      ...    6.0736e-06  Tolerance :   1.0000e-05


----------------
ORBITAL ENERGIES
----------------

  NO   OCC          E(Eh)            E(eV) 
   0   2.0000     -19.173647      -521.7415 
   1   2.0000     -19.171692      -521.6883 
   2   2.0000     -19.108852      -519.9783 
   3   2.0000     -10.338653      -281.3291 
   4   2.0000     -10.231420      -278.4111 
   5   2.0000     -10.226610      -278.2802 
   6   2.0000     -10.170316      -276.7484 
   7   2.0000      -1.142356       -31.0851 
   8   2.0000      -1.055938       -28.7335 
   9   2.0000      -1.020188       -27.7607 
  10   2.0000      -0.785865       -21.3845 
  11   2.0000      -0.727104       -19.7855 
  12   2.0000      -0.642085       -17.4720 
  13   2.0000      -0.578549       -15.7431 
  14   2.0000      -0.548906       -14.9365 
  15   2.0000      -0.513299       -13.9676 
  16   2.0000      -0.487982       -13.2787 
  17   2.0000      -0.474445       -12.9103 
  18   2.0000      -0.445617       -12.1259 
  19   2.0000      -0.423045       -11.5116 
  20   2.0000      -0.420698       -11.4478 
  21   2.0000      -0.398551       -10.8451 
  22   2.0000      -0.374121       -10.1803 
  23   2.0000      -0.370747       -10.0885 
  24   2.0000      -0.359210        -9.7746 
  25   2.0000      -0.312989        -8.5169 
  26   2.0000      -0.307631        -8.3711 
  27   2.0000      -0.292257        -7.9527 
  28   0.0000       0.035143         0.9563 
  29   0.0000       0.036518         0.9937 
  30   0.0000       0.052935         1.4404 
  31   0.0000       0.067415         1.8345 
  32   0.0000       0.086114         2.3433 
  33   0.0000       0.098863         2.6902 
  34   0.0000       0.104078         2.8321 
  35   0.0000       0.107492         2.9250 
  36   0.0000       0.121413         3.3038 
  37   0.0000       0.123276         3.3545 
  38   0.0000       0.132335         3.6010 
*Only the first 10 virtual orbitals were printed.

                    ********************************
                    * MULLIKEN POPULATION ANALYSIS *
                    ********************************

-----------------------
MULLIKEN ATOMIC CHARGES
-----------------------
   0 O :   -0.261369
   1 O :   -0.266926
   2 O :   -0.361480
   3 C :   -0.019468
   4 C :   -0.294554
   5 C :    0.436180
   6 C :   -0.155589
   7 H :    0.107331
   8 H :    0.107303
   9 H :    0.107546
  10 H :    0.112851
  11 H :    0.112840
  12 H :    0.124689
  13 H :    0.125965
  14 H :    0.124682
Sum of atomic charges:    0.0000000

--------------------------------
MULLIKEN REDUCED ORBITAL CHARGES
--------------------------------
  0 O s       :     3.776754  s :     3.776754
      pz      :     1.724028  p :     4.443226
      px      :     1.168150
      py      :     1.551048
      dz2     :     0.004599  d :     0.039266
      dxz     :     0.006108
      dyz     :     0.004385
      dx2y2   :     0.008461
      dxy     :     0.015713
      f0      :     0.000281  f :     0.002123
      f+1     :     0.000395
      f-1     :     0.000170
      f+2     :     0.000109
      f-2     :     0.000240
      f+3     :     0.000431
      f-3     :     0.000496

  1 O s       :     3.768131  s :     3.768131
      pz      :     1.727371  p :     4.456402
      px      :     1.185448
      py      :     1.543583
      dz2     :     0.004745  d :     0.040255
      dxz     :     0.005863
      dyz     :     0.004765
      dx2y2   :     0.008567
      dxy     :     0.016316
      f0      :     0.000286  f :     0.002138
      f+1     :     0.000385
      f-1     :     0.000190
      f+2     :     0.000082
      f-2     :     0.000262
      f+3     :     0.000459
      f-3     :     0.000473

  2 O s       :     3.813247  s :     3.813247
      pz      :     1.461571  p :     4.516871
      px      :     1.743197
      py      :     1.312104
      dz2     :     0.002585  d :     0.029524
      dxz     :     0.000385
      dyz     :     0.010620
      dx2y2   :     0.008113
      dxy     :     0.007821
      f0      :     0.000210  f :     0.001838
      f+1     :     0.000031
      f-1     :     0.000175
      f+2     :     0.000412
      f-2     :     0.000057
      f+3     :     0.000522
      f-3     :     0.000430

  3 C s       :     3.228557  s :     3.228557
      pz      :     1.048830  p :     2.659697
      px      :     0.743983
      py      :     0.866885
      dz2     :     0.007490  d :     0.121310
      dxz     :     0.024217
      dyz     :     0.032276
      dx2y2   :     0.032248
      dxy     :     0.025078
      f0      :     0.001234  f :     0.009904
      f+1     :     0.000457
      f-1     :     0.001475
      f+2     :     0.000169
      f-2     :     0.001889
      f+3     :     0.002704
      f-3     :     0.001977

  4 C s       :     3.258385  s :     3.258385
      pz      :     1.056509  p :     2.987755
      px      :     0.945787
      py      :     0.985459
      dz2     :     0.003904  d :     0.044739
      dxz     :     0.006767
      dyz     :     0.016479
      dx2y2   :     0.008435
      dxy     :     0.009154
      f0      :     0.000357  f :     0.003674
      f+1     :     0.000055
      f-1     :     0.001218
      f+2     :    -0.000002
      f-2     :     0.000515
      f+3     :     0.000654
      f-3     :     0.000878

  5 C s       :     2.982398  s :     2.982398
      pz      :     0.801259  p :     2.236052
      px      :     0.688118
      py      :     0.746675
      dz2     :     0.009861  d :     0.312795
      dxz     :     0.049705
      dyz     :     0.076428
      dx2y2   :     0.070980
      dxy     :     0.105821
      f0      :     0.003598  f :     0.032575
      f+1     :     0.001423
      f-1     :     0.001824
      f+2     :     0.003180
      f-2     :     0.004530
      f+3     :     0.011374
      f-3     :     0.006648

  6 C s       :     3.254715  s :     3.254715
      pz      :     1.084454  p :     2.813348
      px      :     0.703535
      py      :     1.025359
      dz2     :     0.005884  d :     0.079950
      dxz     :     0.025629
      dyz     :     0.011947
      dx2y2   :     0.013221
      dxy     :     0.023270
      f0      :     0.000923  f :     0.007575
      f+1     :     0.000568
      f-1     :     0.001318
      f+2     :     0.001069
      f-2     :     0.000408
      f+3     :     0.001980
      f-3     :     0.001308

  7 H s       :     0.871653  s :     0.871653
      pz      :     0.010040  p :     0.021016
      px      :     0.003356
      py      :     0.007621

  8 H s       :     0.871682  s :     0.871682
      pz      :     0.010037  p :     0.021015
      px      :     0.003355
      py      :     0.007623

  9 H s       :     0.871036  s :     0.871036
      pz      :     0.004416  p :     0.021419
      px      :     0.010381
      py      :     0.006621

 10 H s       :     0.865763  s :     0.865763
      pz      :     0.009664  p :     0.021386
      px      :     0.004252
      py      :     0.007470

 11 H s       :     0.865774  s :     0.865774
      pz      :     0.009668  p :     0.021386
      px      :     0.004252
      py      :     0.007466

 12 H s       :     0.854804  s :     0.854804
      pz      :     0.010088  p :     0.020508
      px      :     0.003262
      py      :     0.007158

 13 H s       :     0.853450  s :     0.853450
      pz      :     0.004392  p :     0.020585
      px      :     0.006363
      py      :     0.009830

 14 H s       :     0.854811  s :     0.854811
      pz      :     0.010100  p :     0.020508
      px      :     0.003261
      py      :     0.007147



                     *******************************
                     * LOEWDIN POPULATION ANALYSIS *
                     *******************************

----------------------
LOEWDIN ATOMIC CHARGES
----------------------
   0 O :    0.257636
   1 O :    0.237570
   2 O :    0.079750
   3 C :   -0.291804
   4 C :   -0.302075
   5 C :   -0.640503
   6 C :   -0.294982
   7 H :    0.125798
   8 H :    0.125794
   9 H :    0.125116
  10 H :    0.121935
  11 H :    0.121921
  12 H :    0.110829
  13 H :    0.112189
  14 H :    0.110827

-------------------------------
LOEWDIN REDUCED ORBITAL CHARGES
-------------------------------
  0 O s       :     3.254171  s :     3.254171
      pz      :     1.590657  p :     4.376325
      px      :     1.246707
      py      :     1.538961
      dz2     :     0.011292  d :     0.105082
      dxz     :     0.017270
      dyz     :     0.007651
      dx2y2   :     0.027991
      dxy     :     0.040878
      f0      :     0.000613  f :     0.006786
      f+1     :     0.000937
      f-1     :     0.000286
      f+2     :     0.000184
      f-2     :     0.001031
      f+3     :     0.002108
      f-3     :     0.001627

  1 O s       :     3.258953  s :     3.258953
      pz      :     1.593182  p :     4.389279
      px      :     1.256908
      py      :     1.539188
      dz2     :     0.011323  d :     0.107261
      dxz     :     0.018022
      dyz     :     0.007523
      dx2y2   :     0.027631
      dxy     :     0.042762
      f0      :     0.000634  f :     0.006937
      f+1     :     0.000863
      f-1     :     0.000389
      f+2     :     0.000326
      f-2     :     0.000895
      f+3     :     0.002077
      f-3     :     0.001753

  2 O s       :     3.399413  s :     3.399413
      pz      :     1.369779  p :     4.447047
      px      :     1.594000
      py      :     1.483269
      dz2     :     0.008614  d :     0.067284
      dxz     :     0.000538
      dyz     :     0.015404
      dx2y2   :     0.025939
      dxy     :     0.016790
      f0      :     0.000517  f :     0.006506
      f+1     :     0.000123
      f-1     :     0.001039
      f+2     :     0.000880
      f-2     :     0.000156
      f+3     :     0.001810
      f-3     :     0.001980

  3 C s       :     2.809968  s :     2.809968
      pz      :     1.069153  p :     2.913116
      px      :     0.872741
      py      :     0.971222
      dz2     :     0.055491  d :     0.501737
      dxz     :     0.071570
      dyz     :     0.129265
      dx2y2   :     0.109313
      dxy     :     0.136098
      f0      :     0.007141  f :     0.066983
      f+1     :     0.006379
      f-1     :     0.005763
      f+2     :     0.004989
      f-2     :     0.010527
      f+3     :     0.018692
      f-3     :     0.013491

  4 C s       :     2.836393  s :     2.836393
      pz      :     1.076662  p :     3.187000
      px      :     1.047266
      py      :     1.063073
      dz2     :     0.036858  d :     0.253024
      dxz     :     0.027192
      dyz     :     0.077543
      dx2y2   :     0.042132
      dxy     :     0.069298
      f0      :     0.002454  f :     0.025657
      f+1     :     0.003152
      f-1     :     0.003915
      f+2     :     0.003505
      f-2     :     0.003175
      f+3     :     0.004339
      f-3     :     0.005118

  5 C s       :     2.728878  s :     2.728878
      pz      :     0.781021  p :     2.617453
      px      :     0.852219
      py      :     0.984213
      dz2     :     0.076470  d :     1.095685
      dxz     :     0.132676
      dyz     :     0.210139
      dx2y2   :     0.277089
      dxy     :     0.399310
      f0      :     0.011006  f :     0.198487
      f+1     :     0.010652
      f-1     :     0.013958
      f+2     :     0.022975
      f-2     :     0.027169
      f+3     :     0.070801
      f-3     :     0.041927

  6 C s       :     2.865644  s :     2.865644
      pz      :     1.116800  p :     3.013500
      px      :     0.815246
      py      :     1.081453
      dz2     :     0.047859  d :     0.362870
      dxz     :     0.075732
      dyz     :     0.061263
      dx2y2   :     0.061652
      dxy     :     0.116364
      f0      :     0.005419  f :     0.052969
      f+1     :     0.007108
      f-1     :     0.004194
      f+2     :     0.008622
      f-2     :     0.003139
      f+3     :     0.012694
      f-3     :     0.011792

  7 H s       :     0.814823  s :     0.814823
      pz      :     0.029359  p :     0.059379
      px      :     0.009751
      py      :     0.020269

  8 H s       :     0.814831  s :     0.814831
      pz      :     0.029351  p :     0.059376
      px      :     0.009750
      py      :     0.020275

  9 H s       :     0.814515  s :     0.814515
      pz      :     0.013491  p :     0.060368
      px      :     0.026685
      py      :     0.020193

 10 H s       :     0.817181  s :     0.817181
      pz      :     0.027822  p :     0.060884
      px      :     0.012631
      py      :     0.020431

 11 H s       :     0.817194  s :     0.817194
      pz      :     0.027831  p :     0.060885
      px      :     0.012631
      py      :     0.020422

 12 H s       :     0.827364  s :     0.827364
      pz      :     0.030705  p :     0.061807
      px      :     0.009552
      py      :     0.021550

 13 H s       :     0.827320  s :     0.827320
      pz      :     0.013750  p :     0.060492
      px      :     0.017114
      py      :     0.029628

 14 H s       :     0.827366  s :     0.827366
      pz      :     0.030739  p :     0.061807
      px      :     0.009550
      py      :     0.021517



                      *****************************
                      * MAYER POPULATION ANALYSIS *
                      *****************************

  NA   - Mulliken gross atomic population
  ZA   - Total nuclear charge
  QA   - Mulliken gross atomic charge
  VA   - Mayer's total valence
  BVA  - Mayer's bonded valence
  FA   - Mayer's free valence

  ATOM       NA         ZA         QA         VA         BVA        FA
  0 O      8.2614     8.0000    -0.2614     2.1061     2.1061    -0.0000
  1 O      8.2669     8.0000    -0.2669     2.1040     2.1040     0.0000
  2 O      8.3615     8.0000    -0.3615     2.1236     2.1236    -0.0000
  3 C      6.0195     6.0000    -0.0195     3.8302     3.8302     0.0000
  4 C      6.2946     6.0000    -0.2946     3.8810     3.8810     0.0000
  5 C      5.5638     6.0000     0.4362     4.4186     4.4186    -0.0000
  6 C      6.1556     6.0000    -0.1556     3.8578     3.8578     0.0000
  7 H      0.8927     1.0000     0.1073     0.9664     0.9664     0.0000
  8 H      0.8927     1.0000     0.1073     0.9664     0.9664     0.0000
  9 H      0.8925     1.0000     0.1075     0.9712     0.9712     0.0000
 10 H      0.8871     1.0000     0.1129     0.9733     0.9733     0.0000
 11 H      0.8872     1.0000     0.1128     0.9733     0.9733     0.0000
 12 H      0.8753     1.0000     0.1247     0.9682     0.9682     0.0000
 13 H      0.8740     1.0000     0.1260     0.9612     0.9612     0.0000
 14 H      0.8753     1.0000     0.1247     0.9682     0.9682     0.0000

  Mayer bond orders larger than 0.100000
B(  0-O ,  3-C ) :   0.8679 B(  0-O ,  5-C ) :   1.2172 B(  1-O ,  5-C ) :   1.2055 
B(  1-O ,  6-C ) :   0.8954 B(  2-O ,  5-C ) :   1.9533 B(  3-C ,  4-C ) :   0.9811 
B(  3-C ,  7-H ) :   0.9685 B(  3-C ,  8-H ) :   0.9685 B(  4-C ,  9-H ) :   0.9677 
B(  4-C , 10-H ) :   0.9704 B(  4-C , 11-H ) :   0.9704 B(  6-C , 12-H ) :   0.9743 
B(  6-C , 13-H ) :   0.9658 B(  6-C , 14-H ) :   0.9743 

-------
TIMINGS
-------

Total SCF time: 0 days 0 hours 0 min 6 sec 

Total time                  ....       6.779 sec
Sum of individual times     ....       6.682 sec  ( 98.6%)

SCF preparation             ....       0.629 sec  (  9.3%)
Fock matrix formation       ....       5.409 sec  ( 79.8%)
  Startup                   ....       0.062 sec  (  1.1% of F)
  Split-RI-J                ....       0.435 sec  (  8.0% of F)
  Chain of spheres X        ....       3.640 sec  ( 67.3% of F)
  XC integration            ....       1.103 sec  ( 20.4% of F)
    XC Preparation          ....       0.000 sec  (  0.0% of XC)
    Basis function eval.    ....       0.198 sec  ( 18.0% of XC)
    Density eval.           ....       0.128 sec  ( 11.6% of XC)
    XC-Functional eval.     ....       0.039 sec  (  3.5% of XC)
    XC-Potential eval.      ....       0.253 sec  ( 23.0% of XC)
Diagonalization             ....       0.000 sec  (  0.0%)
Density matrix formation    ....       0.145 sec  (  2.1%)
Total Energy calculation    ....       0.059 sec  (  0.9%)
Population analysis         ....       0.024 sec  (  0.4%)
Orbital Transformation      ....       0.044 sec  (  0.6%)
Orbital Orthonormalization  ....       0.000 sec  (  0.0%)
DIIS solution               ....       0.235 sec  (  3.5%)
SOSCF solution              ....       0.137 sec  (  2.0%)
Finished LeanSCF after   6.8 sec

Maximum memory used throughout the entire LEANSCF-calculation: 24.4 MB

-------------------------   --------------------
FINAL SINGLE POINT ENERGY      -382.883926346354
-------------------------   --------------------



           ************************************************************
           *        Program running with 20 parallel MPI-processes    *
           *              working on a common directory               *
           ************************************************************

------------------------------------------------------------------------------
                              ORCA PROPERTY CALCULATIONS
------------------------------------------------------------------------------

GBWName                                 ... EMC.gbw
Number of atoms                         ...     15
Number of basis functions               ...    265
Max core memory                         ...   5000 MB

Electric properties:
Dipole moment                           ... YES
Quadrupole moment                       ...  NO
Static polarizability (Dipole/Dipole)   ...  NO
Static polarizability (Dipole/Quad.)    ...  NO
Static polarizability (Quad./Quad.)     ...  NO
Static polarizability (Velocity)        ...  NO

Atomic electric properties:
Dipole moment                           ...  NO
Quadrupole moment                       ...  NO
Static polarizability                   ...  NO

Choice of electric origin               ... Center of mass
Position of electric origin             ...    -0.029215    -0.007544    -0.000585

General magnetic properties:
Magnetizability                         ...  NO

EPR properties:
g-Tensor (aka g-matrix)                 ...  NO
Zero-Field splitting spin-orbit         ...  NO
Zero-field splitting spin-spin          ...  NO
Hyperfine couplings                     ...  NO (   0 nuclei)
Quadrupole couplings                    ...  NO (   0 nuclei)
Contact density                         ...  NO (   0 nuclei)

NMR properties:
Chemical shifts                         ...  NO (   0 nuclei)
Spin-rotation constants                 ...  NO (   0 nuclei)
Spin-spin couplings                     ...  NO (   0 nuclei,    0 pairs)

Choice of magnetic origin               ... GIAO
Position of magnetic origin             ...     0.000000     0.000000     0.000000

Properties with geometric perturbations:
SCF Hessian                             ...  NO
IR spectrum                             ...  NO
VCD spectrum                            ...  NO
X-ray spectroscopy properties:
SCF XES/XAS/RIXS spectra                ...  NO


-------------
DIPOLE MOMENT
-------------

Method             : SCF
Type of density    : Electron Density
Multiplicity       :   1
Irrep              :   0
Energy             :  -382.8839263463537463 Eh
Relativity type    : 
Basis              : AO
                                X                 Y                 Z
Electronic contribution:     -3.895957934       0.161650297       0.000195803
Nuclear contribution   :      4.023201887      -0.376184533      -0.000065788
                        -----------------------------------------
Total Dipole Moment    :      0.127243953      -0.214534236       0.000130015
                        -----------------------------------------
Magnitude (a.u.)       :      0.249431311
Magnitude (Debye)      :      0.634004009



--------------------
Rotational spectrum 
--------------------
 
Rotational constants in cm-1:             0.284842             0.044788             0.039563 
Rotational constants in MHz :          8539.349709          1342.710893          1186.078753 

Dipole components along the rotational axes: 
x,y,z [a.u.] :     0.127879    -0.214156     0.000025 
x,y,z [Debye]:     0.325043    -0.544342     0.000064 

 

Dipole moment calculation done in   0.0 sec 

Maximum memory used throughout the entire PROP-calculation: 12.3 MB

--------------------------------
SUGGESTED CITATIONS FOR THIS RUN
--------------------------------

Below you find a list of papers that are relevant to this ORCA run
We neither can nor want to force you to cite these papers, but we appreciate if you do
You receive ORCA, which is the product of decades of hard work by many enthusiastic individuals, for free
The only thing we kindly ask in return is that you cite our papers,
We deeply appreciate it, if you show your appreciation for ORCA by not just citing the generic ORCA reference.

Please note that relegating all ORCA citations to the supporting information does *not* help us.
SI sections are not indexed - citations you put there will not count into any citation statistics
But we need these citations in order to attract the funding resources that allow us to do what we are doing

Therefore, if you are a happy ORCA user, please consider citing a few of the papers listed below in the main body of your paper

In addition to the list printed below, the program has created the file EMC.bibtex that contains the list in bibtex format
You can import this file easily into all common literature databanks and citation aid programs


List of essential papers. We consider these as the minimum necessary citations

  1. Neese,F.
     Software update: the ORCA program system, version 5.0
     WIRES Comput. Molec. Sci., 2022 12(1)e1606
     doi.org/10.1002/wcms.1606

List of papers to cite with high priority. The work reported in these papers was absolutely
necessary for this run to complete.
Our perspective: the developers of density functionals and basis sets usually get cited in chemistry papers
Good! But without the algorithms to do something with them, the functionals or basis sets would not do anything.
Hence, in our opinion, the algorithm design and method developments papers are equally worthy of getting cited

  1. Neese,F.
     An improvement of the resolution of the identity approximation for the formation of the Coulomb matrix
     J. Comp. Chem., 2003 24(14)1740-1747
     doi.org/10.1002/jcc.10318
  2. Neese,F.; Wennmohs,F.; Hansen,A.; Becker,U.
     Efficient, approximate and parallel Hartree-Fock and hybrid DFT calculations. A 'chain-of-spheres' algorithm for the Hartree-Fock exchange
     Chem. Phys., 2009 356(1-3)98-109
     doi.org/10.1016/j.chemphys.2008.10.036
  3. Helmich-Paris,B.; de Souza,B.; Neese,F.; Izsák,R.
     An improved chain of spheres for exchange algorithm
     J. Chem. Phys., 2021 155 104109
     doi.org/doi: 10.1063/5.0058766.
  4. Neese,F.
     The SHARK Integral Generation and Digestion System
     J. Comp. Chem., 2022  1-16
     doi.org/10.1002/jcc.26942

List of suggested additional citations. These are papers that are important in the 'surrounding' of 
of this run, or papers that preceded the highly important papers. If you like your results we are grateful for a citation.

  1. Izsak,R.; Neese,F.
     An overlap fitted chain of spheres exchange method
     J. Chem. Phys., 2011 135 144105
     doi.org/10.1063/1.3646921
  2. Izsak,R.; Hansen,A.; Neese,F.
     The resolution of identity and chain of spheres approximations for the LPNO-CCSD singles Fock term
     Molec. Phys., 2012 110 2413-2417
     doi.org/10.1080/00268976.2012.687466
  3. Neese,F.
     The ORCA program system
     WIRES Comput. Molec. Sci., 2012 2(1)73-78
     doi.org/10.1002/wcms.81
  4. Izsak,R.; Neese,F.; Klopper,W.
     Robust fitting techniques in the chain of spheres approximation to the Fock exchange: The role of the complementary space
     J. Chem. Phys., 2013 139 
     doi.org/10.1063/1.4819264
  5. Neese,F.
     Software update: the ORCA program system, version 4.0
     WIRES Comput. Molec. Sci., 2018 8(1)1-6
     doi.org/10.1002/wcms.1327
  6. Neese,F.; Wennmohs,F.; Becker,U.; Riplinger,C.
     The ORCA quantum chemistry program package
     J. Chem. Phys., 2020 152 Art. No. L224108
     doi.org/10.1063/5.0004608

List of optional additional citations

  1. Neese,F.
     Approximate second-order SCF convergence for spin unrestricted wavefunctions
     Chem. Phys. Lett., 2000 325(1-3)93-98
     doi.org/10.1016/s0009-2614(00)00662-x

Timings for individual modules:

Sum of individual times          ...        9.778 sec (=   0.163 min)
Startup calculation              ...        1.368 sec (=   0.023 min)  14.0 %
SCF iterations                   ...        7.757 sec (=   0.129 min)  79.3 %
Property calculations            ...        0.653 sec (=   0.011 min)   6.7 %
                             ****ORCA TERMINATED NORMALLY****
TOTAL RUN TIME: 0 days 0 hours 0 minutes 10 seconds 610 msec
