
                                 *****************
                                 * O   R   C   A *
                                 *****************

                                            #,                                       
                                            ###                                      
                                            ####                                     
                                            #####                                    
                                            ######                                   
                                           ########,                                 
                                     ,,################,,,,,                         
                               ,,#################################,,                 
                          ,,##########################################,,             
                       ,#########################################, ''#####,          
                    ,#############################################,,   '####,        
                  ,##################################################,,,,####,       
                ,###########''''           ''''###############################       
              ,#####''   ,,,,##########,,,,          '''####'''          '####       
            ,##' ,,,,###########################,,,                        '##       
           ' ,,###''''                  '''############,,,                           
         ,,##''                                '''############,,,,        ,,,,,,###''
      ,#''                                            '''#######################'''  
     '                                                          ''''####''''         
             ,#######,   #######,   ,#######,      ##                                
            ,#'     '#,  ##    ##  ,#'     '#,    #''#        ,####,   ,####,        
            ##       ##  ##   ,#'  ##            #'  '#       #'       #'  '#        
            ##       ##  #######   ##           ,######,      #####,   #    #        
            '#,     ,#'  ##    ##  '#,     ,#' ,#      #,     #,   #   #,  ,#        
             '#######'   ##     ##  '#######'  #'      '#     '####' # '####'        



                #########################################################
                #                        -***-                          #
                #          Department of theory and spectroscopy        #
                #                                                       #
                #                      Frank Neese                      #
                #                                                       #
                #     Directorship, Architecture, Infrastructure        #
                #                    SHARK, DRIVERS                     #
                #        Core code/Algorithms in most modules           #
                #                                                       #
                #        Max Planck Institute fuer Kohlenforschung      #
                #                Kaiser Wilhelm Platz 1                 #
                #                 D-45470 Muelheim/Ruhr                 #
                #                      Germany                          #
                #                                                       #
                #                  All rights reserved                  #
                #                        -***-                          #
                #########################################################


                         Program Version 6.0.1  -  RELEASE   -


 With contributions from (in alphabetic order):
[Max-Planck-Institut fuer Kohlenforschung]                               
  Daniel Aravena         : Magnetic Suceptibility                        
  Michael Atanasov       : Ab Initio Ligand Field Theory (pilot matlab implementation)
  Alexander A. Auer      : GIAO ZORA, VPT2 properties, NMR spectrum      
  Ute Becker             : All parallelization in ORCA, NUMFREQ, NUMCALC 
  Giovanni Bistoni       : ED, misc. LED, open-shell LED, HFLD           
  Martin Brehm           : Molecular dynamics                            
  Dmytro Bykov           : pre 5.0 version of the SCF Hessian            
  Marcos Casanova-Páez   : Triplet and SCS-CIS(D). UHF-(DLPNO)-IP/EA/STEOM-CCSD. UHF-CVS-IP/STEOM-CCSD   
  Vijay G. Chilkuri      : MRCI spin determinant printing, contributions to CSF-ICE 
  Pauline Colinet        : FMM embedding                                 
  Dipayan Datta          : RHF DLPNO-CCSD density                        
  Achintya Kumar Dutta   : EOM-CC, STEOM-CC                              
  Nicolas Foglia         : Exact transition moments, OPA infrastructure, MCD improvements    
  Dmitry Ganyushin       : Spin-Orbit,Spin-Spin,Magnetic field MRCI      
  Miquel Garcia-Rates    : C-PCM and meta-GGA Hessian, CCSD/C-PCM, Gaussian charge scheme 
  Tiago L. C. Gouveia    : GS-ROHF, GS-ROCIS                             
  Yang Guo               : DLPNO-NEVPT2, F12-NEVPT2, CIM, IAO-localization        
  Andreas Hansen         : Spin unrestricted coupled pair/coupled cluster methods 
  Ingolf Harden          : AUTO-CI MPn and infrastructure                
  Benjamin Helmich-Paris : MC-RPA, TRAH-(SCF,CASSCF), AVAS, COSX integrals, SCF dyn. polar. 
  Lee Huntington         : MR-EOM, pCC                                   
  Robert Izsak           : Overlap fitted RIJCOSX, COSX-SCS-MP3, EOM     
  Riya Kayal             : Wick's Theorem for AUTO-CI, AUTO-CI UHF-CCSDT 
  Emily Kempfer          : AUTO-CI, RHF CISDT and CCSDT                  
  Christian Kollmar      : KDIIS, OOCD, Brueckner-CCSD(T), CCSD density, CASPT2, CASPT2-K, improved NEVPT2 
  Axel Koslowski         : Symmetry handling                             
  Simone Kossmann        : meta-GGA functionals, TD-DFT gradient, OOMP2, (MP2 Hessian; deprecated post 5.0) 
  Lucas Lang             : DCDCAS                                        
  Marvin Lechner         : AUTO-CI (C++ implementation), FIC-MRCC        
  Spencer Leger          : CASSCF response                               
  Dagmar Lenk            : GEPOL surface, SMD, ORCA-2-JSON               
  Dimitrios Liakos       : Extrapolation schemes; Compound Job, initial MDCI parallelization 
  Dimitrios Manganas     : Further ROCIS development; embedding schemes. LFT, Crystal Embedding 
  Dimitrios Pantazis     : SARC Basis sets                               
  Anastasios Papadopoulos: AUTO-CI, single reference methods and gradients 
  Taras Petrenko         : pre 6.0 DFT Hessian and TD-DFT gradient, (ASA, deprecated), ECA, 1-Electron XAS/XES, NRVS 
  Peter Pinski           : DLPNO-MP2, DLPNO-MP2 Gradient                 
  Christoph Reimann      : Effective Core Potentials                     
  Marius Retegan         : Local ZFS, SOC                                
  Christoph Riplinger    : Optimizer, TS searches, QM/MM, DLPNO-CCSD(T), (RO)-DLPNO pert. Triples 
  Michael Roemelt        : Original ROCIS implementation                 
  Masaaki Saitow         : Open-shell DLPNO-CCSD energy and density      
  Barbara Sandhoefer     : DKH picture change effects                    
  Kantharuban Sivalingam : CASSCF convergence/infrastructure, NEVPT2 and variants, FIC-MRCI 
  Bernardo de Souza      : ESD, SOC TD-DFT                               
  Georgi L. Stoychev     : AutoAux, RI-MP2 NMR, DLPNO-MP2 response, X2C  
  Van Anh Tran           : RI-MP2 g-tensors                              
  Willem Van den Heuvel  : Paramagnetic NMR                              
  Zikuan Wang            : NOTCH, Electric field optimization            
  Frank Wennmohs         : Technical directorship and infrastructure     
  Hang Xu                : AUTO-CI-Response properties                   
                                                                         
[FACCTs GmbH]                                                            
  Markus Bursch, Miquel Garcia-Rates, Christoph Riplinger, Bernardo de Souza, Georgi L. Stoychev 
                                                                 
  APM, Basis sets (HGBS, AHGBS, def-TZVP (Ac-Lr), def2-XVPD (La-Lu)), CI-OPT, improved COSX, DLPNO-Multilevel,           
  DOCKER, DRACO, updates on ESD, GOAT, IRC, LR-CPCM, MBIS, meta-GGA TD-DFT gradient, ML-optimized integration grids, 
  MM, NACMEs, nearIR, NEB, NEB-TS, NL-DFT gradient (VV10), 2- and 3-layer-ONIOM, interface openCOSMO-RS, QMMM,   
  Crystal-QMMM, SF, symmetry and pop. for TD-DFT, r2SCAN hybrids, SOLVATOR                                   
                                                                         
[Other institutions]                                                     
  V. Asgeirsson          : NEB                                           
  Christoph Bannwarth    : sTDA-DFT, sTD-DFT, PBEh-3c, B97-3c, D3        
  Sebastian Ehlert       : rSCAN, r2SCAN, r2SCAN-3c, D4, dhf basis sets  
  Marvin Friede          : D4 for Fr, Ra, Ac-Lr                          
  Lars Goerigk           : TD-DFT with DH, B97 family of functionals     
  Stefan Grimme          : VdW corrections, initial TS optimization, DFT functionals, gCP, sTDA/sTD-DF 
  Waldemar Hujo          : DFT-NL                                        
  H. Jonsson             : NEB                                           
  Holger Kruse           : gCP                                           
  Marcel Mueller         : wB97X-3c, vDZP basis set                      
  Hagen Neugebauer       : wr2SCAN                                       
  Tobias Risthaus        : range-separated hybrid DFT                    
  Lukas Wittmann         : regularized MP2, r2SCAN double-hybrids, wr2SCAN        
                                                                         
We gratefully acknowledge several colleagues who have allowed us to      
interface, adapt or use parts of their codes:                            
  Ed Valeev, F. Pavosevic, A. Kumar             : LibInt (2-el integral package), F12 methods 
  Garnet Chan, S. Sharma, J. Yang, R. Olivares  : DMRG                   
  Ulf Ekstrom                                   : XCFun DFT Library      
  Mihaly Kallay                                 : mrcc  (arbitrary order and MRCC methods)
  Frank Weinhold                                : gennbo (NPA and NBO analysis)           
  Simon Mueller                                 : openCOSMO-RS                            
  Christopher J. Cramer and Donald G. Truhlar   : smd solvation model                     
  S Lehtola, MJT Oliveira, MAL Marques          : LibXC Library                           
  Liviu Ungur et al                             : ANISO software                          


 Your calculation uses the libint2 library for the computation of 2-el integrals
 For citations please refer to: http://libint.valeyev.net

 Your ORCA version has been built with support for libXC version: 6.2.2
 For citations please refer to: https://libxc.gitlab.io

 This ORCA versions uses:
   CBLAS   interface :  Fast vector & matrix operations
   LAPACKE interface :  Fast linear algebra routines
   SCALAPACK package :  Parallel linear algebra routines
   Shared memory     :  Shared parallel matrices
   BLAS/LAPACK       :  OpenBLAS 0.3.27  USE64BITINT DYNAMIC_ARCH NO_AFFINITY SkylakeX SINGLE_THREADED
        Core in use  :  SkylakeX
   Copyright (c) 2011-2014, The OpenBLAS Project


NOTE: MaxCore=5000 MB was set to SCF,MP2,MDCI,CIPSI,MRCI and CIS
      => If you want to overwrite this, your respective input block should be placed after the MaxCore statement
Warning: RI is on but no J-basis has been assigned. Assigning Def2/J (nothing to worry about!)
================================================================================

----- Orbital basis set information -----
Your calculation utilizes the basis: def2-TZVP
   F. Weigend and R. Ahlrichs, Phys. Chem. Chem. Phys. 7, 3297 (2005).

----- AuxJ basis set information -----
Your calculation utilizes the auxiliary basis: def2/J
   F. Weigend, Phys. Chem. Chem. Phys. 8, 1057 (2006).

================================================================================
                                        WARNINGS
                       Please study these warnings very carefully!
================================================================================


WARNING: Geometry Optimization
  ===> : Switching off AutoStart
         For restart on a previous wavefunction, please use MOREAD

================================================================================
                                       INPUT FILE
================================================================================
NAME = honokiol2-opt_EC2_closer.inp
|  1> ! OPT B3LYP def2-TZVP TightSCF Freq RIJCOSX
|  2> 
|  3> %maxcore 5000
|  4> 
|  5> %pal
|  6> nprocs 25
|  7> end
|  8> 
|  9> * xyz 0 1
| 10> O           0.67672008827174      2.08675315142242      1.11106428670573
| 11>   O          -3.65300428065685     -2.50075167759016      1.25138397145412
| 12>   C           1.27654012813250     -0.00503809374805      0.01115956939870
| 13>   C          -0.01878555349118     -0.66108786698511      0.33930695282472
| 14>   C          -2.44731229263187     -0.77105500563223      0.04103995094688
| 15>   C          -1.21014322476938     -0.18235144134787     -0.21122335085652
| 16>   C           3.45393435539539     -0.11508428675345     -1.10383732891216
| 17>   C           2.25157890343223     -0.69939729882087     -0.70764782788675
| 18>   C           1.54560452819553      1.32632961935316      0.37407257453858
| 19>   C          -0.08760653785246     -1.78210830356470      1.16829586720976
| 20>   C          -2.47921760026319     -1.88661053167765      0.89193561156904
| 21>   C          -3.71197807034698     -0.20687495782479     -0.57566921607071
| 22>   C           4.47927311668618     -0.91008804194583     -1.89067230249561
| 23>   C           3.67113028152904      1.21860925366773     -0.76518615591302
| 24>   C          -1.30462470668098     -2.38838537096766      1.44245535630610
| 25>   C           2.73227883932617      1.92934187154150     -0.02972469756891
| 26>   C          -4.48491823856432     -1.20494800972330     -1.39839871228761
| 27>   C           3.99355162310521     -1.33584074801037     -3.24905131767133
| 28>   C          -5.77570055512464     -1.48812464160441     -1.24310959756566
| 29>   C           3.94061099104897     -2.58891106846064     -3.68452163068755
| 30>   H          -1.17503672818151      0.68205116920802     -0.86392260395577
| 31>   H           2.04361140541136     -1.72497648141964     -0.99178209109144
| 32>   H           0.81736766235719     -2.17398184156323      1.61559280117634
| 33>   H          -4.36553715464971      0.21529955429382      0.19396953653341
| 34>   H          -3.42867468549711      0.63310586834008     -1.21482482365299
| 35>   H           4.78306126710295     -1.79627284724976     -1.32495598250304
| 36>   H           5.37615845672478     -0.29310510672773     -2.00999119168507
| 37>   H           4.59244698753286      1.70645730136810     -1.06329695371617
| 38>   H          -1.36390239827287     -3.25222859181090      2.09206482654114
| 39>   H           2.91568635642217      2.95482451485197      0.26527422944394
| 40>   H          -3.91897885941309     -1.72144747549258     -2.17012600161727
| 41>   H           3.66006397000704     -0.53206012277387     -3.90114870981576
| 42>   H           0.20505374031073      1.54849301079350      1.77162972655439
| 43>   H          -4.33585314196381     -2.31561619197646      0.58858732140148
| 44>   H          -6.27806903783577     -2.21041412201443     -1.87435731107219
| 45>   H          -6.38010884127116     -0.98741287450743     -0.49346690333096
| 46>   H           3.58146000497422     -2.83062498473078     -4.67719028752621
| 47>   H           4.25666891402191     -3.42030492323146     -3.06328209196398
| 48>   H          -4.23168225448198      1.58416695445693      4.95262395897538
| 49>   H          -3.92376876979922     -0.78123383980668      5.36342452581511
| 50>   C          -4.01872201823985      0.99384823464603      4.06049618877067
| 51>   O          -2.16172244324929     -0.36676494000070      4.37360666960412
| 52>   C          -1.77735023426580      0.73657971319350      3.71274858088346
| 53>   C          -3.60394927032796     -0.44202648631798      4.38092717894798
| 54>   O          -2.83090103738930      1.53251531752176      3.44133203233440
| 55>   O          -0.64827317696291      0.99524112013472      3.41010805614470
| 56>   H          -4.83968949328633      1.08274625573680      3.35503031795076
| 57>   H          -3.91144042379199     -1.15729865518364      3.61732488432544
| 58>   O          -5.05016960857987      2.66625789512994      1.34922915491094
| 59>   C          -4.04254746174534      3.30521880699106      1.29174936772255
| 60>   O          -3.08667664680244      3.14374037756662      0.35478053247379
| 61>   O          -3.70822885028484      4.28959673317749      2.15340681810952
| 62>   C          -2.04933244574050      4.12939723298614      0.53060017030302
| 63>   C          -2.34075436296345      4.67938622553156      1.92811432711059
| 64>   H          -1.08344185836114      3.63483009675602      0.45422860807407
| 65>   H          -2.15667636424457      4.88199239629283     -0.25245917547072
| 66>   H          -2.27512435938951      5.76314209074170      1.99577485422352
| 67>   H          -1.71961058491470      4.21780611406085      2.69609643343289
| 68> *
| 69> 
| 70>                          ****END OF INPUT****
================================================================================

                       *****************************
                       * Geometry Optimization Run *
                       *****************************

Geometry optimization settings:
Update method            Update   .... BFGS
Choice of coordinates    CoordSys .... (2022) Redundant Internals
Initial Hessian          InHess   .... Almloef's Model
Max. no of cycles        MaxIter  .... 174

Convergence Tolerances:
Energy Change            TolE     ....  5.0000e-06 Eh
Max. Gradient            TolMAXG  ....  3.0000e-04 Eh/bohr
RMS Gradient             TolRMSG  ....  1.0000e-04 Eh/bohr
Max. Displacement        TolMAXD  ....  4.0000e-03 bohr
RMS Displacement         TolRMSD  ....  2.0000e-03 bohr
Strict Convergence                .... False

------------------------------------------------------------------------------
                        ORCA OPTIMIZATION COORDINATE SETUP
------------------------------------------------------------------------------

The optimization will be done in redundant internal coordinates (2022)
Making redundant internal coordinates   ...  (2022 redundants) done
Evaluating the initial hessian          ...  (Almloef) done
Evaluating the coordinates              ...  done
Calculating the B-matrix                .... done
Calculating the G-matrix                .... done
Diagonalizing the G-matrix              .... done
Small eigenvalue found = 1.241e-03
Small eigenvalue found = 2.702e-03
Small eigenvalue found = 3.813e-03
Small eigenvalue found = 7.869e-03
Small eigenvalue found = 1.059e-02
Small eigenvalue found = 1.316e-02
Small eigenvalue found = 1.474e-02
Small eigenvalue found = 1.966e-02
Small eigenvalue found = 2.557e-02
The first mode is                       ....  137
The number of degrees of freedom        ....  168

    -----------------------------------------------------------------
                    Redundant Internal Coordinates


    -----------------------------------------------------------------
         Definition                    Initial Value    Approx d2E/dq
    -----------------------------------------------------------------
      1. B(C   3,C   2)                  1.4886         0.434928   
      2. B(C   5,C   4)                  1.3931         0.617666   
      3. B(C   5,C   3)                  1.3970         0.608937   
      4. B(C   7,C   2)                  1.3963         0.610610   
      5. B(C   7,C   6)                  1.3943         0.615025   
      6. B(C   8,C   2)                  1.4059         0.589280   
      7. B(C   8,O   0)                  1.3698         0.602696   
      8. B(C   9,C   3)                  1.3959         0.611312   
      9. B(C  10,C   4)                  1.4034         0.594805   
     10. B(C  10,O   1)                  1.3726         0.596442   
     11. B(C  11,C   4)                  1.5159         0.393408   
     12. B(C  12,C   6)                  1.5174         0.391293   
     13. B(C  13,C   6)                  1.3931         0.617828   
     14. B(C  14,C  10)                  1.3909         0.622804   
     15. B(C  14,C   9)                  1.3870         0.631637   
     16. B(C  15,C  13)                  1.3883         0.628619   
     17. B(C  15,C   8)                  1.3910         0.622513   
     18. B(C  16,C  11)                  1.5068         0.406798   
     19. B(C  17,C  12)                  1.5041         0.410831   
     20. B(C  18,C  16)                  1.3306         0.777234   
     21. B(C  19,C  17)                  1.3276         0.785658   
     22. B(H  20,C   5)                  1.0837         0.368509   
     23. B(H  21,C   7)                  1.0843         0.367664   
     24. B(H  22,C   9)                  1.0829         0.369650   
     25. B(H  23,C  11)                  1.0944         0.354324   
     26. B(H  24,C  11)                  1.0929         0.356333   
     27. B(H  25,C  12)                  1.0944         0.354365   
     28. B(H  26,C  12)                  1.0951         0.353378   
     29. B(H  27,C  13)                  1.0843         0.367730   
     30. B(H  28,C  14)                  1.0825         0.370206   
     31. B(H  29,C  15)                  1.0827         0.369864   
     32. B(H  30,C  16)                  1.0875         0.363443   
     33. B(H  31,C  17)                  1.0874         0.363513   
     34. B(H  32,O   0)                  0.9739         0.494017   
     35. B(H  33,O   1)                  0.9695         0.502193   
     36. B(H  34,C  18)                  1.0828         0.369693   
     37. B(H  35,C  18)                  1.0854         0.366303   
     38. B(H  36,C  19)                  1.0830         0.369532   
     39. B(H  37,C  19)                  1.0849         0.366886   
     40. B(C  40,H  38)                  1.0907         0.359118   
     41. B(C  42,O  41)                  1.3423         0.666704   
     42. B(C  43,O  41)                  1.4442         0.458554   
     43. B(C  43,C  40)                  1.5285         0.375577   
     44. B(C  43,H  39)                  1.0875         0.363428   
     45. B(O  44,C  42)                  1.3480         0.652915   
     46. B(O  44,C  40)                  1.4438         0.459308   
     47. B(O  45,H  32)                  1.9284         0.014821   
     48. B(O  45,C  42)                  1.1972         1.136212   
     49. B(H  46,C  40)                  1.0861         0.365321   
     50. B(H  47,C  43)                  1.0905         0.359401   
     51. B(O  48,H  46)                  2.5642         0.001434   
     52. B(O  48,H  23)                  2.7947         0.000615   
     53. B(C  49,O  48)                  1.1945         1.147498   
     54. B(C  49,H  46)                  3.1356         0.000196   
     55. B(C  49,O  44)                  3.0383         0.001313   
     56. B(O  50,C  49)                  1.3482         0.652448   
     57. B(O  50,H  24)                  2.9806         0.000311   
     58. B(O  51,C  49)                  1.3503         0.647539   
     59. B(C  52,O  50)                  1.4417         0.462788   
     60. B(C  53,C  52)                  1.5299         0.373772   
     61. B(C  53,O  51)                  1.4397         0.466245   
     62. B(H  54,H  32)                  2.7836         0.000137   
     63. B(H  54,O   0)                  2.4344         0.002311   
     64. B(H  54,C  52)                  1.0878         0.362982   
     65. B(H  54,O  50)                  2.0649         0.008976   
     66. B(H  55,C  52)                  1.0914         0.358283   
     67. B(H  56,C  53)                  1.0878         0.362959   
     68. B(H  57,C  53)                  1.0903         0.359753   
     69. B(H  57,O  44)                  3.0002         0.000289   
     70. A(C   8,O   0,H  32)          111.4263         0.365104   
     71. A(C  10,O   1,H  33)          109.7456         0.365478   
     72. A(C   3,C   2,C   7)          120.1305         0.406360   
     73. A(C   7,C   2,C   8)          118.0455         0.428944   
     74. A(C   3,C   2,C   8)          121.8008         0.403816   
     75. A(C   5,C   3,C   9)          117.8516         0.431567   
     76. A(C   2,C   3,C   5)          120.2764         0.406163   
     77. A(C   2,C   3,C   9)          121.8521         0.406442   
     78. A(C  10,C   4,C  11)          121.5696         0.397398   
     79. A(C   5,C   4,C  10)          117.7676         0.430549   
     80. A(C   5,C   4,C  11)          120.6590         0.400042   
     81. A(C   3,C   5,H  20)          118.8854         0.353213   
     82. A(C   3,C   5,C   4)          122.7625         0.432369   
     83. A(C   4,C   5,H  20)          118.3520         0.354065   
     84. A(C   7,C   6,C  12)          120.6963         0.399362   
     85. A(C  12,C   6,C  13)          121.4872         0.399681   
     86. A(C   7,C   6,C  13)          117.8133         0.433164   
     87. A(C   2,C   7,H  21)          118.1199         0.353239   
     88. A(C   2,C   7,C   6)          122.6886         0.432250   
     89. A(C   6,C   7,H  21)          119.1631         0.353671   
     90. A(O   0,C   8,C   2)          122.9003         0.425152   
     91. A(O   0,C   8,C  15)          117.1724         0.429352   
     92. A(C   2,C   8,C  15)          119.9241         0.430432   
     93. A(C   3,C   9,C  14)          120.7743         0.434416   
     94. A(C  14,C   9,H  22)          119.5676         0.355597   
     95. A(C   3,C   9,H  22)          119.6508         0.353631   
     96. A(O   1,C  10,C   4)          122.2669         0.425069   
     97. A(O   1,C  10,C  14)          117.2000         0.428586   
     98. A(C   4,C  10,C  14)          120.5012         0.431190   
     99. A(C   4,C  11,C  16)          113.8007         0.371987   
    100. A(H  23,C  11,H  24)          105.6408         0.289624   
    101. A(C  16,C  11,H  24)          108.8294         0.328330   
    102. A(C   4,C  11,H  24)          107.9216         0.326524   
    103. A(C  16,C  11,H  23)          109.4609         0.328024   
    104. A(C   4,C  11,H  23)          110.8348         0.326220   
    105. A(C   6,C  12,C  17)          113.4778         0.372274   
    106. A(H  25,C  12,H  26)          106.5704         0.289251   
    107. A(C   6,C  12,H  26)          108.3443         0.325788   
    108. A(C  17,C  12,H  25)          109.1035         0.328565   
    109. A(C   6,C  12,H  25)          110.1076         0.325937   
    110. A(C  17,C  12,H  26)          108.9985         0.328414   
    111. A(C  15,C  13,H  27)          119.3349         0.354994   
    112. A(C   6,C  13,H  27)          119.7617         0.353954   
    113. A(C   6,C  13,C  15)          120.8947         0.434871   
    114. A(C   9,C  14,H  28)          121.0302         0.355688   
    115. A(C  10,C  14,H  28)          118.6324         0.354839   
    116. A(C   9,C  14,C  10)          120.3354         0.435875   
    117. A(C   8,C  15,H  29)          118.4254         0.354755   
    118. A(C   8,C  15,C  13)          120.5814         0.435463   
    119. A(C  13,C  15,H  29)          120.9741         0.355343   
    120. A(C  11,C  16,C  18)          125.0906         0.419139   
    121. A(C  18,C  16,H  30)          119.1167         0.367343   
    122. A(C  11,C  16,H  30)          115.7925         0.329403   
    123. A(C  12,C  17,C  19)          125.1878         0.420685   
    124. A(C  19,C  17,H  31)          119.2563         0.368035   
    125. A(C  12,C  17,H  31)          115.5547         0.329951   
    126. A(H  34,C  18,H  35)          116.8728         0.292831   
    127. A(C  16,C  18,H  35)          121.5103         0.367837   
    128. A(C  16,C  18,H  34)          121.5999         0.368419   
    129. A(H  36,C  19,H  37)          116.7722         0.292884   
    130. A(C  17,C  19,H  37)          121.5904         0.368619   
    131. A(C  17,C  19,H  36)          121.6374         0.369074   
    132. A(O   0,H  32,O  45)          161.6444         0.191874   
    133. A(H  38,C  40,C  43)          112.9493         0.324458   
    134. A(O  44,C  40,H  46)          108.2278         0.334353   
    135. A(H  38,C  40,H  46)          109.8397         0.291373   
    136. A(C  43,C  40,H  46)          114.7191         0.325373   
    137. A(C  43,C  40,O  44)          102.5407         0.374465   
    138. A(H  38,C  40,O  44)          108.0274         0.333404   
    139. A(C  42,O  41,C  43)          109.3468         0.411266   
    140. A(O  44,C  42,O  45)          123.9598         0.482869   
    141. A(O  41,C  42,O  45)          124.8963         0.484737   
    142. A(O  41,C  42,O  44)          111.1406         0.438099   
    143. A(O  41,C  43,H  47)          108.1924         0.333357   
    144. A(C  40,C  43,H  47)          113.1308         0.324500   
    145. A(H  39,C  43,H  47)          110.1879         0.291171   
    146. A(C  40,C  43,O  41)          102.7656         0.374359   
    147. A(H  39,C  43,O  41)          108.3318         0.333974   
    148. A(H  39,C  43,C  40)          113.7406         0.325095   
    149. A(C  42,O  44,C  49)          142.9992         0.174216   
    150. A(C  40,O  44,C  49)          101.1281         0.167695   
    151. A(C  40,O  44,C  42)          109.6554         0.409864   
    152. A(H  32,O  45,C  42)          133.9538         0.233118   
    153. A(O  44,C  49,O  51)           82.8269         0.174057   
    154. A(O  44,C  49,O  50)           97.9939         0.174202   
    155. A(O  44,C  49,O  48)           89.4417         0.185817   
    156. A(O  50,C  49,O  51)          110.8095         0.435746   
    157. A(O  48,C  49,O  51)          124.6186         0.483013   
    158. A(O  48,C  49,O  50)          124.5716         0.483687   
    159. A(C  49,O  50,C  52)          110.0902         0.410361   
    160. A(C  49,O  51,C  53)          109.4326         0.410353   
    161. A(H  54,C  52,H  55)          110.5160         0.290973   
    162. A(C  53,C  52,H  55)          112.8789         0.324078   
    163. A(O  50,C  52,H  55)          108.2510         0.333693   
    164. A(C  53,C  52,H  54)          113.3728         0.324772   
    165. A(O  50,C  52,H  54)          108.6319         0.334416   
    166. A(O  50,C  52,C  53)          102.7163         0.374641   
    167. A(H  56,C  53,H  57)          110.0958         0.291157   
    168. A(C  52,C  53,H  57)          112.5034         0.324296   
    169. A(O  51,C  53,H  57)          108.4387         0.334333   
    170. A(C  52,C  53,H  56)          113.7956         0.324769   
    171. A(O  51,C  53,H  56)          108.4997         0.334826   
    172. A(O  51,C  53,C  52)          103.0942         0.375123   
    173. D(C   5,C   3,C   2,C   8)     63.6941         0.012915   
    174. D(C   9,C   3,C   2,C   8)   -117.9642         0.012915   
    175. D(C   9,C   3,C   2,C   7)     63.8205         0.012915   
    176. D(C   5,C   3,C   2,C   7)   -114.5213         0.012915   
    177. D(C   3,C   5,C   4,C  11)    179.6464         0.026387   
    178. D(C   4,C   5,C   3,C   9)      0.3980         0.025604   
    179. D(H  20,C   5,C   4,C  10)   -179.7658         0.026387   
    180. D(H  20,C   5,C   3,C   9)   -179.4926         0.025604   
    181. D(C   4,C   5,C   3,C   2)    178.8049         0.025604   
    182. D(H  20,C   5,C   3,C   2)     -1.0857         0.025604   
    183. D(H  20,C   5,C   4,C  11)     -0.4624         0.026387   
    184. D(C   3,C   5,C   4,C  10)      0.3430         0.026387   
    185. D(C   6,C   7,C   2,C   8)     -1.7033         0.025753   
    186. D(H  21,C   7,C   2,C   3)     -1.4665         0.025753   
    187. D(H  21,C   7,C   2,C   8)   -179.7480         0.025753   
    188. D(H  21,C   7,C   6,C  13)    177.7182         0.026149   
    189. D(C   6,C   7,C   2,C   3)    176.5781         0.025753   
    190. D(H  21,C   7,C   6,C  12)     -1.6404         0.026149   
    191. D(C   2,C   7,C   6,C  12)   -179.6654         0.026149   
    192. D(C   2,C   7,C   6,C  13)     -0.3069         0.026149   
    193. D(C  15,C   8,C   2,C   3)   -175.6986         0.023894   
    194. D(C  15,C   8,C   2,C   7)      2.5525         0.023894   
    195. D(O   0,C   8,C   2,C   7)   -178.1108         0.023894   
    196. D(C  15,C   8,O   0,H  32)   -145.5376         0.029288   
    197. D(O   0,C   8,C   2,C   3)      3.6381         0.023894   
    198. D(C   2,C   8,O   0,H  32)     35.1086         0.029288   
    199. D(H  22,C   9,C   3,C   5)   -179.6154         0.025816   
    200. D(C  14,C   9,C   3,C   5)     -0.6005         0.025816   
    201. D(H  22,C   9,C   3,C   2)      2.0043         0.025816   
    202. D(C  14,C   9,C   3,C   2)   -178.9808         0.025816   
    203. D(C   4,C  10,O   1,H  33)     23.3502         0.025962   
    204. D(C  14,C  10,C   4,C  11)    179.8032         0.024367   
    205. D(C  14,C  10,C   4,C   5)     -0.9001         0.024367   
    206. D(O   1,C  10,C   4,C  11)     -2.3065         0.024367   
    207. D(O   1,C  10,C   4,C   5)    176.9902         0.024367   
    208. D(C  14,C  10,O   1,H  33)   -158.6935         0.025962   
    209. D(H  24,C  11,C   4,C   5)      2.2953         0.011504   
    210. D(H  23,C  11,C   4,C  10)     66.3418         0.011504   
    211. D(H  23,C  11,C   4,C   5)   -112.9348         0.011504   
    212. D(C  16,C  11,C   4,C  10)    -57.5385         0.011504   
    213. D(C  16,C  11,C   4,C   5)    123.1849         0.011504   
    214. D(H  26,C  12,C   6,C   7)   -174.6525         0.011387   
    215. D(H  25,C  12,C   6,C  13)    122.2032         0.011387   
    216. D(H  25,C  12,C   6,C   7)    -58.4622         0.011387   
    217. D(C  17,C  12,C   6,C  13)   -115.1820         0.011387   
    218. D(C  17,C  12,C   6,C   7)     64.1527         0.011387   
    219. D(H  27,C  13,C   6,C  12)     -0.2322         0.026402   
    220. D(H  27,C  13,C   6,C   7)   -179.5854         0.026402   
    221. D(C  15,C  13,C   6,C  12)   -179.1458         0.026402   
    222. D(C  15,C  13,C   6,C   7)      1.5010         0.026402   
    223. D(H  28,C  14,C  10,C   4)   -179.7901         0.026855   
    224. D(H  28,C  14,C  10,O   1)      2.2155         0.026855   
    225. D(C   9,C  14,C  10,C   4)      0.7163         0.026855   
    226. D(C   9,C  14,C  10,O   1)   -177.2780         0.026855   
    227. D(H  28,C  14,C   9,H  22)     -0.4085         0.027672   
    228. D(C  10,C  14,C   9,H  22)    179.0727         0.027672   
    229. D(C  10,C  14,C   9,C   3)      0.0570         0.027672   
    230. D(H  28,C  14,C   9,C   3)   -179.4242         0.027672   
    231. D(C   8,C  15,C  13,C   6)     -0.6450         0.027391   
    232. D(H  29,C  15,C   8,C   2)   -179.8618         0.026829   
    233. D(H  29,C  15,C   8,O   0)      0.7642         0.026829   
    234. D(C  13,C  15,C   8,C   2)     -1.4387         0.026829   
    235. D(C  13,C  15,C   8,O   0)    179.1873         0.026829   
    236. D(H  29,C  15,C  13,H  27)     -1.1806         0.027391   
    237. D(H  29,C  15,C  13,C   6)    177.7376         0.027391   
    238. D(C   8,C  15,C  13,H  27)   -179.5632         0.027391   
    239. D(H  30,C  16,C  11,H  23)   -177.4432         0.012264   
    240. D(H  30,C  16,C  11,C   4)    -52.8225         0.012264   
    241. D(C  18,C  16,C  11,H  24)   -112.6122         0.012264   
    242. D(C  18,C  16,C  11,H  23)      2.3868         0.012264   
    243. D(C  18,C  16,C  11,C   4)    127.0074         0.012264   
    244. D(H  31,C  17,C  12,H  25)    179.7780         0.012499   
    245. D(H  31,C  17,C  12,C   6)     56.6101         0.012499   
    246. D(C  19,C  17,C  12,H  26)    116.1913         0.012499   
    247. D(C  19,C  17,C  12,H  25)      0.1862         0.012499   
    248. D(C  19,C  17,C  12,C   6)   -122.9817         0.012499   
    249. D(H  35,C  18,C  16,H  30)   -179.2449         0.043389   
    250. D(H  35,C  18,C  16,C  11)      0.9304         0.043389   
    251. D(H  34,C  18,C  16,H  30)     -0.7898         0.043389   
    252. D(H  34,C  18,C  16,C  11)    179.3855         0.043389   
    253. D(H  37,C  19,C  17,H  31)   -179.5476         0.044433   
    254. D(H  37,C  19,C  17,C  12)      0.0303         0.044433   
    255. D(H  36,C  19,C  17,H  31)      0.5487         0.044433   
    256. D(H  36,C  19,C  17,C  12)   -179.8735         0.044433   
    257. D(O  45,H  32,O   0,C   8)    142.2630         0.336053   
    258. D(O  45,C  42,O  41,C  43)   -171.2231         0.032991   
    259. D(O  44,C  42,O  41,C  43)      9.4154         0.032991   
    260. D(H  47,C  43,O  41,C  42)    101.0434         0.016564   
    261. D(H  39,C  43,O  41,C  42)   -139.5130         0.016564   
    262. D(O  41,C  43,C  40,H  46)    137.6666         0.011257   
    263. D(O  41,C  43,C  40,O  44)     20.5910         0.011257   
    264. D(O  41,C  43,C  40,H  38)    -95.4155         0.011257   
    265. D(H  39,C  43,C  40,H  46)   -105.4646         0.011257   
    266. D(C  40,C  43,O  41,C  42)    -18.8534         0.016564   
    267. D(H  39,C  43,C  40,O  44)    137.4598         0.011257   
    268. D(H  39,C  43,C  40,H  38)     21.4532         0.011257   
    269. D(C  49,O  44,C  42,O  45)     41.3140         0.037877   
    270. D(C  49,O  44,C  42,O  41)   -139.3173         0.037877   
    271. D(C  40,O  44,C  42,O  45)   -174.1470         0.037877   
    272. D(C  40,O  44,C  42,O  41)      5.2217         0.037877   
    273. D(C  49,O  44,C  40,H  46)     21.1597         0.019313   
    274. D(C  49,O  44,C  40,C  43)    142.7793         0.019313   
    275. D(C  49,O  44,C  40,H  38)    -97.7182         0.019313   
    276. D(C  42,O  44,C  40,H  46)   -137.9954         0.019313   
    277. D(C  42,O  44,C  40,C  43)    -16.3758         0.019313   
    278. D(C  42,O  44,C  40,H  38)    103.1267         0.019313   
    279. D(H  32,O  45,C  42,O  44)    -50.1830         0.110236   
    280. D(H  32,O  45,C  42,O  41)    130.5349         0.110236   
    281. D(C  42,O  45,H  32,O   0)    113.0673         0.001615   
    282. D(O  51,C  49,O  44,C  42)   -110.4042         0.001500   
    283. D(O  51,C  49,O  44,C  40)    103.4315         0.001500   
    284. D(O  50,C  49,O  44,C  42)     -0.2893         0.001500   
    285. D(O  50,C  49,O  44,C  40)   -146.4535         0.001500   
    286. D(O  48,C  49,O  44,C  42)    124.5769         0.001500   
    287. D(O  48,C  49,O  44,C  40)    -21.5873         0.001500   
    288. D(C  52,O  50,C  49,O  44)    -88.6384         0.043412   
    289. D(C  52,O  50,C  49,O  51)     -3.3143         0.043412   
    290. D(C  52,O  50,C  49,O  48)    176.4956         0.043412   
    291. D(C  53,O  51,C  49,O  44)     85.7976         0.037200   
    292. D(C  53,O  51,C  49,O  50)    -10.0634         0.037200   
    293. D(C  53,O  51,C  49,O  48)    170.1268         0.037200   
    294. D(H  55,C  52,O  50,C  49)   -105.5256         0.019614   
    295. D(H  54,C  52,O  50,C  49)    134.4329         0.019614   
    296. D(C  53,C  52,O  50,C  49)     14.0841         0.019614   
    297. D(H  57,C  53,O  51,C  49)   -101.3911         0.017131   
    298. D(H  56,C  53,O  51,C  49)    139.0397         0.017131   
    299. D(C  52,C  53,O  51,C  49)     18.0660         0.017131   
    300. D(H  56,C  53,C  52,H  55)    -19.7747         0.011155   
    301. D(H  56,C  53,C  52,H  54)    106.8642         0.011155   
    302. D(H  56,C  53,C  52,O  50)   -136.1145         0.011155   
    303. D(O  51,C  53,C  52,H  55)     97.5224         0.011155   
    304. D(O  51,C  53,C  52,H  54)   -135.8387         0.011155   
    305. D(O  51,C  53,C  52,O  50)    -18.8174         0.011155   
    -----------------------------------------------------------------

Number of atoms                         .... 58
Number of degrees of freedom            .... 305


         *************************************************************
         *                GEOMETRY OPTIMIZATION CYCLE   1            *
         *************************************************************
---------------------------------
CARTESIAN COORDINATES (ANGSTROEM)
---------------------------------
  O      0.676720    2.086753    1.111064
  O     -3.653004   -2.500752    1.251384
  C      1.276540   -0.005038    0.011160
  C     -0.018786   -0.661088    0.339307
  C     -2.447312   -0.771055    0.041040
  C     -1.210143   -0.182351   -0.211223
  C      3.453934   -0.115084   -1.103837
  C      2.251579   -0.699397   -0.707648
  C      1.545605    1.326330    0.374073
  C     -0.087607   -1.782108    1.168296
  C     -2.479218   -1.886611    0.891936
  C     -3.711978   -0.206875   -0.575669
  C      4.479273   -0.910088   -1.890672
  C      3.671130    1.218609   -0.765186
  C     -1.304625   -2.388385    1.442455
  C      2.732279    1.929342   -0.029725
  C     -4.484918   -1.204948   -1.398399
  C      3.993552   -1.335841   -3.249051
  C     -5.775701   -1.488125   -1.243110
  C      3.940611   -2.588911   -3.684522
  H     -1.175037    0.682051   -0.863923
  H      2.043611   -1.724976   -0.991782
  H      0.817368   -2.173982    1.615593
  H     -4.365537    0.215300    0.193970
  H     -3.428675    0.633106   -1.214825
  H      4.783061   -1.796273   -1.324956
  H      5.376158   -0.293105   -2.009991
  H      4.592447    1.706457   -1.063297
  H     -1.363902   -3.252229    2.092065
  H      2.915686    2.954825    0.265274
  H     -3.918979   -1.721447   -2.170126
  H      3.660064   -0.532060   -3.901149
  H      0.205054    1.548493    1.771630
  H     -4.335853   -2.315616    0.588587
  H     -6.278069   -2.210414   -1.874357
  H     -6.380109   -0.987413   -0.493467
  H      3.581460   -2.830625   -4.677190
  H      4.256669   -3.420305   -3.063282
  H     -4.231682    1.584167    4.952624
  H     -3.923769   -0.781234    5.363425
  C     -4.018722    0.993848    4.060496
  O     -2.161722   -0.366765    4.373607
  C     -1.777350    0.736580    3.712749
  C     -3.603949   -0.442026    4.380927
  O     -2.830901    1.532515    3.441332
  O     -0.648273    0.995241    3.410108
  H     -4.839689    1.082746    3.355030
  H     -3.911440   -1.157299    3.617325
  O     -5.050170    2.666258    1.349229
  C     -4.042547    3.305219    1.291749
  O     -3.086677    3.143740    0.354781
  O     -3.708229    4.289597    2.153407
  C     -2.049332    4.129397    0.530600
  C     -2.340754    4.679386    1.928114
  H     -1.083442    3.634830    0.454229
  H     -2.156676    4.881992   -0.252459
  H     -2.275124    5.763142    1.995775
  H     -1.719611    4.217806    2.696096

----------------------------
CARTESIAN COORDINATES (A.U.)
----------------------------
  NO LB      ZA    FRAG     MASS         X           Y           Z
   0 O     8.0000    0    15.999    1.278816    3.943392    2.099607
   1 O     8.0000    0    15.999   -6.903178   -4.725736    2.364773
   2 C     6.0000    0    12.011    2.412311   -0.009521    0.021089
   3 C     6.0000    0    12.011   -0.035500   -1.249275    0.641197
   4 C     6.0000    0    12.011   -4.624750   -1.457083    0.077554
   5 C     6.0000    0    12.011   -2.286839   -0.344594   -0.399154
   6 C     6.0000    0    12.011    6.526990   -0.217478   -2.085950
   7 C     6.0000    0    12.011    4.254867   -1.321669   -1.337261
   8 C     6.0000    0    12.011    2.920769    2.506400    0.706895
   9 C     6.0000    0    12.011   -0.165552   -3.367697    2.207759
  10 C     6.0000    0    12.011   -4.685042   -3.565177    1.685514
  11 C     6.0000    0    12.011   -7.014622   -0.390937   -1.087857
  12 C     6.0000    0    12.011    8.464599   -1.719817   -3.572853
  13 C     6.0000    0    12.011    6.937431    2.302838   -1.445992
  14 C     6.0000    0    12.011   -2.465383   -4.513394    2.725846
  15 C     6.0000    0    12.011    5.163259    3.645928   -0.056172
  16 C     6.0000    0    12.011   -8.475267   -2.277022   -2.642591
  17 C     6.0000    0    12.011    7.546719   -2.524373   -6.139817
  18 C     6.0000    0    12.011  -10.914492   -2.812148   -2.349137
  19 C     6.0000    0    12.011    7.446676   -4.892333   -6.962737
  20 H     1.0000    0     1.008   -2.220498    1.288890   -1.632577
  21 H     1.0000    0     1.008    3.861866   -3.259733   -1.874197
  22 H     1.0000    0     1.008    1.544601   -4.108230    3.053028
  23 H     1.0000    0     1.008   -8.249670    0.406857    0.366549
  24 H     1.0000    0     1.008   -6.479256    1.196397   -2.295686
  25 H     1.0000    0     1.008    9.038676   -3.394464   -2.503804
  26 H     1.0000    0     1.008   10.159467   -0.553888   -3.798333
  27 H     1.0000    0     1.008    8.678467    3.224737   -2.009340
  28 H     1.0000    0     1.008   -2.577402   -6.145821    3.953430
  29 H     1.0000    0     1.008    5.509849    5.583809    0.501296
  30 H     1.0000    0     1.008   -7.405797   -3.253064   -4.100944
  31 H     1.0000    0     1.008    6.916519   -1.005448   -7.372103
  32 H     1.0000    0     1.008    0.387495    2.926228    3.347895
  33 H     1.0000    0     1.008   -8.193575   -4.375880    1.112269
  34 H     1.0000    0     1.008  -11.863831   -4.177077   -3.542022
  35 H     1.0000    0     1.008  -12.056658   -1.865940   -0.932517
  36 H     1.0000    0     1.008    6.767979   -5.349106   -8.838609
  37 H     1.0000    0     1.008    8.043938   -6.463440   -5.788764
  38 H     1.0000    0     1.008   -7.996721    2.993642    9.359103
  39 H     1.0000    0     1.008   -7.414848   -1.476318   10.135403
  40 C     6.0000    0    12.011   -7.594284    1.878101    7.673226
  41 O     8.0000    0    15.999   -4.085063   -0.693085    8.264919
  42 C     6.0000    0    12.011   -3.358705    1.391934    7.016078
  43 C     6.0000    0    12.011   -6.810477   -0.835309    8.278753
  44 O     8.0000    0    15.999   -5.349628    2.896034    6.503175
  45 O     8.0000    0    15.999   -1.225059    1.880733    6.444170
  46 H     1.0000    0     1.008   -9.145688    2.046094    6.340088
  47 H     1.0000    0     1.008   -7.391551   -2.186978    6.835753
  48 O     8.0000    0    15.999   -9.543437    5.038497    2.549674
  49 C     6.0000    0    12.011   -7.639308    6.245958    2.441053
  50 O     8.0000    0    15.999   -5.832974    5.940808    0.670438
  51 O     8.0000    0    15.999   -7.007537    8.106163    4.069349
  52 C     6.0000    0    12.011   -3.872677    7.803430    1.002689
  53 C     6.0000    0    12.011   -4.423385    8.842758    3.643608
  54 H     1.0000    0     1.008   -2.047408    6.868833    0.858368
  55 H     1.0000    0     1.008   -4.075528    9.225629   -0.477079
  56 H     1.0000    0     1.008   -4.299362   10.890760    3.771468
  57 H     1.0000    0     1.008   -3.249593    7.970498    5.094884

--------------------------------
INTERNAL COORDINATES (ANGSTROEM)
--------------------------------
 O      0   0   0     0.000000000000     0.00000000     0.00000000
 O      1   0   0     6.309627824289     0.00000000     0.00000000
 C      1   2   0     2.438270920293    63.58260924     0.00000000
 C      3   1   2     1.488606943316    93.70312900   359.92205445
 C      2   1   3     2.431147135602    29.69508636   286.05371101
 C      5   2   1     1.393124532306   146.22419034    43.85323037
 C      3   1   2     2.448749449976   117.56124471   178.03450123
 C      7   3   1     1.394290661828    28.67769896   177.92578790
 C      1   2   3     1.369803234727    92.49998560     1.53835116
 C      4   3   1     1.395939027068   121.85207832   243.75451863
 C      2   1   3     1.372642576054    23.37603262   353.49308951
 C      5   2   1     1.515918484732    93.07182012   226.67921496
 C      7   3   1     1.517385851334   149.37320701   178.49049870
 C      7   3   1     1.393053174528    89.13594225   357.65432305
 C     10   4   3     1.387035879557   120.77430971   181.01923275
 C     14   7   3     1.388339454653   120.89465351     1.35372297
 C     12   5   2     1.506807932191   113.80070022   301.35895388
 C     13   7   3     1.504122430162   113.47775867    63.83758838
 C     17  12   5     1.330572321499   125.09056143   127.00742997
 C     18  13   7     1.327637876845   125.18775668   237.01832041
 H      6   5   2     1.083716131759   118.35200424   182.81855965
 H      8   7   3     1.084341007036   119.16313320   178.02507721
 H     10   4   3     1.082874748050   119.65081134     2.00433330
 H     12   5   2     1.094401482486   110.83481218    65.23924353
 H     12   5   2     1.092862519668   107.92161356   180.46936288
 H     13   7   3     1.094370003331   110.10755699   301.22269957
 H     13   7   3     1.095129331560   108.34431019   185.03236767
 H     14   7   3     1.084292505818   119.76165648   180.26736353
 H     15  10   4     1.082465435354   121.03024822   180.57575119
 H     16  14   7     1.082717569820   120.97408794   177.73757484
 H     17  12   5     1.087484293271   115.79250488   307.17748495
 H     18  13   7     1.087431982754   115.55467829    56.61010950
 H      1   2   3     0.973930091491    41.47591105   241.35966124
 H      2   1   3     0.969462281238   109.22553622   258.04263037
 H     19  17  12     1.082843415153   121.59992018   179.38547279
 H     19  17  12     1.085350551247   121.51029738     0.93040364
 H     20  18  13     1.082961730804   121.63738876   180.12653385
 H     20  18  13     1.084917930951   121.59035340     0.03032403
 H     24  12   5     4.953433860036   140.00167752    13.96057946
 H     39  24  12     2.420472833408    84.05484034   293.43411057
 C     39  24  12     1.090742963099    21.56023555   322.78419306
 O     40  39  24     2.063087762139    80.26428213    65.92930841
 C     42  40  39     1.342328138794   130.23306942   350.07471698
 C     40  39  24     1.087495828729    65.11867289    25.06075345
 O     43  42  40     1.348016959769   111.14059906   344.22962228
 O     43  42  40     1.197210095172   124.89628867   163.59119912
 H     41  39  24     1.086081280628   109.83974755   332.34309298
 H     44  40  39     1.090529022707   110.18790537   222.12958851
 O     47  41  39     2.564185893550   128.36717415    96.14053054
 C     49  47  41     1.194519720898   107.38152472     1.43437083
 O     50  49  47     1.348211740142   124.57157379   107.93309135
 O     50  49  47     1.350267528062   124.61859173   287.71719394
 C     51  50  49     1.441705577834   110.09019046   176.49561162
 C     52  50  49     1.439680182653   109.43255209   170.12675799
 H     53  51  50     1.087829901476   108.63185373   134.43288730
 H     53  51  50     1.091377173884   108.25095446   254.47439923
 H     54  52  50     1.087847424815   108.49973585   139.03969270
 H     54  52  50     1.090262494973   108.43872813   258.60893006

---------------------------
INTERNAL COORDINATES (A.U.)
---------------------------
 O      0   0   0     0.000000000000     0.00000000     0.00000000
 O      1   0   0    11.923468594875     0.00000000     0.00000000
 C      1   2   0     4.607664279657    63.58260924     0.00000000
 C      3   1   2     2.813059443920    93.70312900   359.92205445
 C      2   1   3     4.594202277556    29.69508636   286.05371101
 C      5   2   1     2.632623836506   146.22419034    43.85323037
 C      3   1   2     4.627465831044   117.56124471   178.03450123
 C      7   3   1     2.634827501938    28.67769896   177.92578790
 C      1   2   3     2.588552970994    92.49998560     1.53835116
 C      4   3   1     2.637942460811   121.85207832   243.75451863
 C      2   1   3     2.593918548502    23.37603262   353.49308951
 C      5   2   1     2.864670777492    93.07182012   226.67921496
 C      7   3   1     2.867443698509   149.37320701   178.49049870
 C      7   3   1     2.632488989848    89.13594225   357.65432305
 C     10   4   3     2.621117950286   120.77430971   181.01923275
 C     14   7   3     2.623581350211   120.89465351     1.35372297
 C     12   5   2     2.847454328262   113.80070022   301.35895388
 C     13   7   3     2.842379464895   113.47775867    63.83758838
 C     17  12   5     2.514417289009   125.09056143   127.00742997
 C     18  13   7     2.508871992258   125.18775668   237.01832041
 H      6   5   2     2.047926695937   118.35200424   182.81855965
 H      8   7   3     2.049107539078   119.16313320   178.02507721
 H     10   4   3     2.046336711154   119.65081134     2.00433330
 H     12   5   2     2.068119082456   110.83481218    65.23924353
 H     12   5   2     2.065210864200   107.92161356   180.46936288
 H     13   7   3     2.068059595474   110.10755699   301.22269957
 H     13   7   3     2.069494517873   108.34431019   185.03236767
 H     14   7   3     2.049015885060   119.76165648   180.26736353
 H     15  10   4     2.045563222255   121.03024822   180.57575119
 H     16  14   7     2.046039687345   120.97408794   177.73757484
 H     17  12   5     2.055047489222   115.79250488   307.17748495
 H     18  13   7     2.054948636672   115.55467829    56.61010950
 H      1   2   3     1.840461146502    41.47591105   241.35966124
 H      2   1   3     1.832018208706   109.22553622   258.04263037
 H     19  17  12     2.046277500559   121.59992018   179.38547279
 H     19  17  12     2.051015301157   121.51029738     0.93040364
 H     20  18  13     2.046501084738   121.63738876   180.12653385
 H     20  18  13     2.050197767277   121.59035340     0.03032403
 H     24  12   5     9.360633417961   140.00167752    13.96057946
 H     39  24  12     4.574030769738    84.05484034   293.43411057
 C     39  24  12     2.061205482759    21.56023555   322.78419306
 O     40  39  24     3.898670860688    80.26428213    65.92930841
 C     42  40  39     2.536632564177   130.23306942   350.07471698
 C     40  39  24     2.055069288080    65.11867289    25.06075345
 O     43  42  40     2.547382877845   111.14059906   344.22962228
 O     43  42  40     2.262399204642   124.89628867   163.59119912
 H     41  39  24     2.052396179565   109.83974755   332.34309298
 H     44  40  39     2.060801194008   110.18790537   222.12958851
 O     47  41  39     4.845609095273   128.36717415    96.14053054
 C     49  47  41     2.257315134064   107.38152472     1.43437083
 O     50  49  47     2.547750959406   124.57157379   107.93309135
 O     50  49  47     2.551635835564   124.61859173   287.71719394
 C     51  50  49     2.724428707854   110.09019046   176.49561162
 C     52  50  49     2.720601265649   109.43255209   170.12675799
 H     53  51  50     2.055700594079   108.63185373   134.43288730
 H     53  51  50     2.062403967455   108.25095446   254.47439923
 H     54  52  50     2.055733708391   108.49973585   139.03969270
 H     54  52  50     2.060297529585   108.43872813   258.60893006

---------------------
BASIS SET INFORMATION
---------------------
There are 3 groups of distinct atoms

 Group   1 Type O   : 11s6p2d1f contracted to 5s3p2d1f pattern {62111/411/11/1}
 Group   2 Type C   : 11s6p2d1f contracted to 5s3p2d1f pattern {62111/411/11/1}
 Group   3 Type H   : 5s1p contracted to 3s1p pattern {311/1}

Atom   0O    basis set group =>   1
Atom   1O    basis set group =>   1
Atom   2C    basis set group =>   2
Atom   3C    basis set group =>   2
Atom   4C    basis set group =>   2
Atom   5C    basis set group =>   2
Atom   6C    basis set group =>   2
Atom   7C    basis set group =>   2
Atom   8C    basis set group =>   2
Atom   9C    basis set group =>   2
Atom  10C    basis set group =>   2
Atom  11C    basis set group =>   2
Atom  12C    basis set group =>   2
Atom  13C    basis set group =>   2
Atom  14C    basis set group =>   2
Atom  15C    basis set group =>   2
Atom  16C    basis set group =>   2
Atom  17C    basis set group =>   2
Atom  18C    basis set group =>   2
Atom  19C    basis set group =>   2
Atom  20H    basis set group =>   3
Atom  21H    basis set group =>   3
Atom  22H    basis set group =>   3
Atom  23H    basis set group =>   3
Atom  24H    basis set group =>   3
Atom  25H    basis set group =>   3
Atom  26H    basis set group =>   3
Atom  27H    basis set group =>   3
Atom  28H    basis set group =>   3
Atom  29H    basis set group =>   3
Atom  30H    basis set group =>   3
Atom  31H    basis set group =>   3
Atom  32H    basis set group =>   3
Atom  33H    basis set group =>   3
Atom  34H    basis set group =>   3
Atom  35H    basis set group =>   3
Atom  36H    basis set group =>   3
Atom  37H    basis set group =>   3
Atom  38H    basis set group =>   3
Atom  39H    basis set group =>   3
Atom  40C    basis set group =>   2
Atom  41O    basis set group =>   1
Atom  42C    basis set group =>   2
Atom  43C    basis set group =>   2
Atom  44O    basis set group =>   1
Atom  45O    basis set group =>   1
Atom  46H    basis set group =>   3
Atom  47H    basis set group =>   3
Atom  48O    basis set group =>   1
Atom  49C    basis set group =>   2
Atom  50O    basis set group =>   1
Atom  51O    basis set group =>   1
Atom  52C    basis set group =>   2
Atom  53C    basis set group =>   2
Atom  54H    basis set group =>   3
Atom  55H    basis set group =>   3
Atom  56H    basis set group =>   3
Atom  57H    basis set group =>   3
---------------------------------
AUXILIARY/J BASIS SET INFORMATION
---------------------------------
There are 3 groups of distinct atoms

 Group   1 Type O   : 12s5p4d2f1g contracted to 6s4p3d1f1g pattern {711111/2111/211/2/1}
 Group   2 Type C   : 12s5p4d2f1g contracted to 6s4p3d1f1g pattern {711111/2111/211/2/1}
 Group   3 Type H   : 5s2p1d contracted to 3s1p1d pattern {311/2/1}

Atom   0O    basis set group =>   1
Atom   1O    basis set group =>   1
Atom   2C    basis set group =>   2
Atom   3C    basis set group =>   2
Atom   4C    basis set group =>   2
Atom   5C    basis set group =>   2
Atom   6C    basis set group =>   2
Atom   7C    basis set group =>   2
Atom   8C    basis set group =>   2
Atom   9C    basis set group =>   2
Atom  10C    basis set group =>   2
Atom  11C    basis set group =>   2
Atom  12C    basis set group =>   2
Atom  13C    basis set group =>   2
Atom  14C    basis set group =>   2
Atom  15C    basis set group =>   2
Atom  16C    basis set group =>   2
Atom  17C    basis set group =>   2
Atom  18C    basis set group =>   2
Atom  19C    basis set group =>   2
Atom  20H    basis set group =>   3
Atom  21H    basis set group =>   3
Atom  22H    basis set group =>   3
Atom  23H    basis set group =>   3
Atom  24H    basis set group =>   3
Atom  25H    basis set group =>   3
Atom  26H    basis set group =>   3
Atom  27H    basis set group =>   3
Atom  28H    basis set group =>   3
Atom  29H    basis set group =>   3
Atom  30H    basis set group =>   3
Atom  31H    basis set group =>   3
Atom  32H    basis set group =>   3
Atom  33H    basis set group =>   3
Atom  34H    basis set group =>   3
Atom  35H    basis set group =>   3
Atom  36H    basis set group =>   3
Atom  37H    basis set group =>   3
Atom  38H    basis set group =>   3
Atom  39H    basis set group =>   3
Atom  40C    basis set group =>   2
Atom  41O    basis set group =>   1
Atom  42C    basis set group =>   2
Atom  43C    basis set group =>   2
Atom  44O    basis set group =>   1
Atom  45O    basis set group =>   1
Atom  46H    basis set group =>   3
Atom  47H    basis set group =>   3
Atom  48O    basis set group =>   1
Atom  49C    basis set group =>   2
Atom  50O    basis set group =>   1
Atom  51O    basis set group =>   1
Atom  52C    basis set group =>   2
Atom  53C    basis set group =>   2
Atom  54H    basis set group =>   3
Atom  55H    basis set group =>   3
Atom  56H    basis set group =>   3
Atom  57H    basis set group =>   3
--------------------------------------------------------------------------
WARNING: There was an error initializing an OpenFabrics device.

  Local host:   ga00
  Local device: mlx5_0
--------------------------------------------------------------------------


           ************************************************************
           *        Program running with 25 parallel MPI-processes    *
           *              working on a common directory               *
           ************************************************************
------------------------------------------------------------------------------
                             ORCA STARTUP CALCULATIONS
                           -- RI-GTO INTEGRALS CHOSEN --
------------------------------------------------------------------------------
------------------------------------------------------------------------------
                   ___                                                        
                  /   \      - P O W E R E D   B Y -                         
                 /     \                                                     
                 |  |  |   _    _      __       _____    __    __             
                 |  |  |  | |  | |    /  \     |  _  \  |  |  /  |          
                  \  \/   | |  | |   /    \    | | | |  |  | /  /          
                 / \  \   | |__| |  /  /\  \   | |_| |  |  |/  /          
                |  |  |   |  __  | /  /__\  \  |    /   |      \           
                |  |  |   | |  | | |   __   |  |    \   |  |\   \          
                \     /   | |  | | |  |  |  |  | |\  \  |  | \   \       
                 \___/    |_|  |_| |__|  |__|  |_| \__\ |__|  \__/        
                                                                              
                      - O R C A' S   B I G   F R I E N D -                    
                                      &                                       
                       - I N T E G R A L  F E E D E R -                       
                                                                              
 v1 FN, 2020, v2 2021, v3 2022-2024                                           
------------------------------------------------------------------------------


----------------------
SHARK INTEGRAL PACKAGE
----------------------

Number of atoms                             ...     58
Number of basis functions                   ...   1148
Number of shells                            ...    456
Maximum angular momentum                    ...      3
Integral batch strategy                     ... SHARK/LIBINT Hybrid
RI-J (if used) integral strategy            ... SPLIT-RIJ (Revised 2003 algorithm where possible)
Printlevel                                  ...      1
Contraction scheme used                     ... SEGMENTED contraction
Prescreening option                         ... SCHWARTZ
   Thresh                                   ... 2.500e-11
   Tcut                                     ... 2.500e-12
   Tpresel                                  ... 2.500e-12 
Coulomb Range Separation                    ... NOT USED
Exchange Range Separation                   ... NOT USED
Multipole approximations                    ... NOT USED
Finite Nucleus Model                        ... NOT USED
CABS basis                                  ... NOT available
Auxiliary Coulomb fitting basis             ... AVAILABLE
   # of basis functions in Aux-J            ...   1854
   # of shells in Aux-J                     ...    610
   Maximum angular momentum in Aux-J        ...      4
Auxiliary J/K fitting basis                 ... NOT available
Auxiliary Correlation fitting basis         ... NOT available
Auxiliary 'external' fitting basis          ... NOT available

Checking pre-screening integrals            ... done (  0.0 sec) Dimension = 456
Check shell pair data                       ... done (  0.0 sec)
Shell pair information
Shell pair cut-off parameter TPreSel        ...   2.5e-12
Total number of shell pairs                 ...    104196
Shell pairs after pre-screening             ...     62312
Total number of primitive shell pairs       ...    317988
Primitive shell pairs kept                  ...    120101
          la=0 lb=0:  16530 shell pairs
          la=1 lb=0:  18427 shell pairs
          la=1 lb=1:   5172 shell pairs
          la=2 lb=0:   8600 shell pairs
          la=2 lb=1:   4916 shell pairs
          la=2 lb=2:   1166 shell pairs
          la=3 lb=0:   3923 shell pairs
          la=3 lb=1:   2308 shell pairs
          la=3 lb=2:   1025 shell pairs
          la=3 lb=3:    245 shell pairs

Calculating one electron integrals          ... done (  0.1 sec)
Calculating RI/J V-Matrix + Cholesky decomp.... done (  0.2 sec)
Calculating Nuclear repulsion               ... done (  0.0 sec) ENN=   3325.922284273954 Eh

Diagonalization of the overlap matrix:
Smallest eigenvalue                        ... 5.634e-06
Time for diagonalization                   ...    0.223 sec
Threshold for overlap eigenvalues          ... 1.000e-07
Number of eigenvalues below threshold      ... 0
Time for construction of square roots      ...    0.097 sec
Total time needed                          ...    0.329 sec

-------------------
DFT GRID GENERATION
-------------------

General Integration Accuracy     IntAcc      ... 4.388
Radial Grid Type                 RadialGrid  ... OptM3 with GC (2021)
Angular Grid (max. ang.)         AngularGrid ... 4 (Lebedev-302)
Angular grid pruning method      GridPruning ... 4 (adaptive)
Weight generation scheme         WeightScheme... mBecke (2022)
Basis function cutoff            BFCut       ... 1.0000e-11
Integration weight cutoff        WCut        ... 1.0000e-14
Partially contracted basis set               ... off
Rotationally invariant grid construction     ... off
Angular grids for H and He will be reduced by one unit

Total number of grid points                  ...   273835
Total number of batches                      ...     4310
Average number of points per batch           ...       63
Average number of grid points per atom       ...     4721

--------------------
COSX GRID GENERATION
--------------------

GRIDX 1
-------
General Integration Accuracy     IntAcc      ... 3.816
Radial Grid Type                 RadialGrid  ... OptM3 with GC (2021)
Angular Grid (max. ang.)         AngularGrid ... 1 (Lebedev-50)
Angular grid pruning method      GridPruning ... 4 (adaptive)
Weight generation scheme         WeightScheme... mBecke (2022)
Basis function cutoff            BFCut       ... 1.0000e-11
Integration weight cutoff        WCut        ... 1.0000e-14
Partially contracted basis set               ... on
Rotationally invariant grid construction     ... off
Angular grids for H and He will be reduced by one unit

Total number of grid points                  ...    34686
Total number of batches                      ...      307
Average number of points per batch           ...      112
Average number of grid points per atom       ...      598
UseSFitting                                  ... on

GRIDX 2
-------
General Integration Accuracy     IntAcc      ... 4.020
Radial Grid Type                 RadialGrid  ... OptM3 with GC (2021)
Angular Grid (max. ang.)         AngularGrid ... 2 (Lebedev-110)
Angular grid pruning method      GridPruning ... 4 (adaptive)
Weight generation scheme         WeightScheme... mBecke (2022)
Basis function cutoff            BFCut       ... 1.0000e-11
Integration weight cutoff        WCut        ... 1.0000e-14
Partially contracted basis set               ... on
Rotationally invariant grid construction     ... off
Angular grids for H and He will be reduced by one unit

Total number of grid points                  ...    74778
Total number of batches                      ...      618
Average number of points per batch           ...      121
Average number of grid points per atom       ...     1289
UseSFitting                                  ... on

GRIDX 3
-------
General Integration Accuracy     IntAcc      ... 4.338
Radial Grid Type                 RadialGrid  ... OptM3 with GC (2021)
Angular Grid (max. ang.)         AngularGrid ... 3 (Lebedev-194)
Angular grid pruning method      GridPruning ... 4 (adaptive)
Weight generation scheme         WeightScheme... mBecke (2022)
Basis function cutoff            BFCut       ... 1.0000e-11
Integration weight cutoff        WCut        ... 1.0000e-14
Partially contracted basis set               ... on
Rotationally invariant grid construction     ... off
Angular grids for H and He will be reduced by one unit

Total number of grid points                  ...   163283
Total number of batches                      ...     1305
Average number of points per batch           ...      125
Average number of grid points per atom       ...     2815
UseSFitting                                  ... on
Initializing property integral containers    ... done (  0.0 sec)

SHARK setup successfully completed in   4.3 seconds

Maximum memory used throughout the entire STARTUP-calculation: 129.4 MB
[ga00:3393060] 24 more processes have sent help message help-mpi-btl-openib.txt / error in device init
[ga00:3393060] Set MCA parameter "orte_base_help_aggregate" to 0 to see all help / error messages
--------------------------------------------------------------------------
WARNING: There was an error initializing an OpenFabrics device.

  Local host:   ga00
  Local device: mlx5_0
--------------------------------------------------------------------------


           ************************************************************
           *        Program running with 25 parallel MPI-processes    *
           *              working on a common directory               *
           ************************************************************
-------------------------------------------------------------------------------
                                 ORCA GUESS
                   Start orbitals & Density for SCF / CASSCF
-------------------------------------------------------------------------------

------------
SCF SETTINGS
------------
Hamiltonian:
 Density Functional     Method          .... DFT(GTOs)
 Exchange Functional    Exchange        .... B88
   X-Alpha parameter    XAlpha          ....  0.666667
   Becke's b parameter  XBeta           ....  0.004200
 Correlation Functional Correlation     .... LYP
 LDA part of GGA corr.  LDAOpt          .... VWN-5
 Gradients option       PostSCFGGA      .... off
 Hybrid DFT is turned on
   Fraction HF Exchange ScalHFX         ....  0.200000
   Scaling of DF-GGA-X  ScalDFX         ....  0.720000
   Scaling of DF-GGA-C  ScalDFC         ....  0.810000
   Scaling of DF-LDA-C  ScalLDAC        ....  1.000000
   Perturbative correction              ....  0.000000
   NL short-range parameter             ....  4.800000
 RI-approximation to the Coulomb term is turned on
   Number of AuxJ basis functions       .... 1854
   RIJ-COSX (HFX calculated with COS-X)).... on


General Settings:
 Integral files         IntName         .... honokiol2-opt_EC2_closer
 Hartree-Fock type      HFTyp           .... RHF
 Total Charge           Charge          ....    0
 Multiplicity           Mult            ....    1
 Number of Electrons    NEL             ....  234
 Basis Dimension        Dim             .... 1148
 Nuclear Repulsion      ENuc            ....   3325.9222842740 Eh

Convergence Acceleration:
 AO-DIIS                CNVDIIS         .... on
   Start iteration      DIISMaxIt       ....    12
   Startup error        DIISStart       ....  0.200000
   # of expansion vecs  DIISMaxEq       ....     5
   Bias factor          DIISBfac        ....   1.050
   Max. coefficient     DIISMaxC        ....  10.000
 MO-DIIS                CNVKDIIS        .... off
 Trust-Rad. Augm. Hess. CNVTRAH         .... auto
   Auto Start mean grad. ratio tolernc. ....  1.125000
   Auto Start start iteration           ....    50
   Auto Start num. interpolation iter.  ....    10
   Max. Number of Micro iterations      ....    24
   Max. Number of Macro iterations      .... Maxiter - #DIIS iter
   Number of Davidson start vectors     ....     2
   Converg. threshold    (grad. norm)   ....   1.000e-05
   Grad. Scal. Fac. for Micro threshold ....   0.100
   Minimum threshold for Micro iter.    ....   1.000e-02
   NR start threshold (gradient norm)   ....   1.000e-04
   Initial trust radius                 ....   0.400
   Minimum AH scaling param. (alpha)    ....   1.000
   Maximum AH scaling param. (alpha)    .... 1000.000
   Quad. conv. algorithm                .... NR
   White noise on init. David. guess    .... on
   Maximum white noise                  ....   0.010
   Pseudo random numbers                .... off
   Inactive MOs                         .... canonical
   Orbital update algorithm             .... Taylor
   Preconditioner                       .... Diag
   Full preconditioner red. dimension   ....   250
 SOSCF                  CNVSOSCF        .... on
   Start iteration      SOSCFMaxIt      ....   150
   Startup grad/error   SOSCFStart      ....  0.003300
   Hessian update       SOSCFHessUp     .... L-BFGS
 Level Shifting         CNVShift        .... on
   Level shift para.    LevelShift      ....    0.2500
   Turn off err/grad.   ShiftErr        ....    0.0010
 Zerner damping         CNVZerner       .... off
 Static damping         CNVDamp         .... on
   Fraction old density DampFac         ....    0.7000
   Max. Damping (<1)    DampMax         ....    0.9800
   Min. Damping (>=0)   DampMin         ....    0.0000
   Turn off err/grad.   DampErr         ....    0.1000

SCF Procedure:
 Maximum # iterations   MaxIter         ....   125
 SCF integral mode      SCFMode         .... Direct
   Integral package                     .... SHARK and LIBINT hybrid scheme
 Reset frequency        DirectResetFreq ....    20
 Integral Threshold     Thresh          ....  2.500e-11 Eh
 Primitive CutOff       TCut            ....  2.500e-12 Eh

Convergence Tolerance:
 Convergence Check Mode ConvCheckMode   .... Total+1el-Energy
 Convergence forced     ConvForced      .... 0
 Energy Change          TolE            ....  1.000e-08 Eh
 1-El. energy change                    ....  1.000e-05 Eh
 Orbital Gradient       TolG            ....  1.000e-05
 Orbital Rotation angle TolX            ....  1.000e-05
 DIIS Error             TolErr          ....  5.000e-07

------------------------------
INITIAL GUESS: MODEL POTENTIAL
------------------------------
Loading Hartree-Fock densities                     ... done
Calculating cut-offs                               ... done
Initializing the effective Hamiltonian             ... done
Setting up the integral package (SHARK)            ... done
Starting the Coulomb interaction                   ... done (   0.3 sec)
Making the grid                                    ... done (   0.3 sec)
Mapping shells                                     ... done
Starting the XC term evaluation                    ... done (   0.2 sec)
  promolecular density results
     # of electrons  =    233.983241602
     EX              =   -196.773030794
     EC              =     -8.027196837
     EX+EC           =   -204.800227631
Transforming the Hamiltonian                       ... done (   0.1 sec)
Diagonalizing the Hamiltonian                      ... done (   0.2 sec)
Back transforming the eigenvectors                 ... done (   0.1 sec)
Now organizing SCF variables                       ... done
                      ------------------
                      INITIAL GUESS DONE (   1.2 sec)
                      ------------------
             **** ENERGY FILE WAS UPDATED (honokiol2-opt_EC2_closer.en.tmp) ****
Finished Guess after   2.2 sec
Maximum memory used throughout the entire GUESS-calculation: 113.1 MB
[ga00:3393237] 24 more processes have sent help message help-mpi-btl-openib.txt / error in device init
[ga00:3393237] Set MCA parameter "orte_base_help_aggregate" to 0 to see all help / error messages
--------------------------------------------------------------------------
WARNING: There was an error initializing an OpenFabrics device.

  Local host:   ga00
  Local device: mlx5_0
--------------------------------------------------------------------------


           ************************************************************
           *        Program running with 25 parallel MPI-processes    *
           *              working on a common directory               *
           ************************************************************

-------------------------------------------------------------------------------------------
                                      ORCA LEAN-SCF
                              memory conserving SCF solver
-------------------------------------------------------------------------------------------

----------------------------------------D-I-I-S--------------------------------------------
Iteration    Energy (Eh)           Delta-E    RMSDP     MaxDP     DIISErr   Damp  Time(sec)
-------------------------------------------------------------------------------------------
               ***  Starting incremental Fock matrix formation  ***
[ga00:3393377] 24 more processes have sent help message help-mpi-btl-openib.txt / error in device init
[ga00:3393377] Set MCA parameter "orte_base_help_aggregate" to 0 to see all help / error messages
    1    -1530.8170926747720841     0.00e+00  1.05e-03  1.21e-01  3.03e-01  0.700   7.5
    2    -1531.2421914660785660    -4.25e-01  9.54e-04  1.59e-01  1.13e-01  0.700   4.4
                               ***Turning on AO-DIIS***
    3    -1531.4081352833550227    -1.66e-01  3.96e-04  5.65e-02  3.89e-02  0.700   4.0
    4    -1531.5094501418302571    -1.01e-01  5.45e-04  3.78e-02  1.87e-02  0.000   3.8
    5    -1531.7318722158674973    -2.22e-01  2.51e-04  5.14e-02  5.90e-03  0.000   3.9
                              *** Initializing SOSCF ***
---------------------------------------S-O-S-C-F--------------------------------------
Iteration    Energy (Eh)           Delta-E    RMSDP     MaxDP     MaxGrad    Time(sec)
--------------------------------------------------------------------------------------
    6    -1531.7329861568955494    -1.11e-03  9.16e-05  1.74e-02  1.86e-03     3.9
               *** Restarting incremental Fock matrix formation ***
    7    -1531.7330263338767509    -4.02e-05  7.79e-05  1.07e-02  2.76e-04     7.3
    8    -1531.7330096270948161     1.67e-05  1.23e-05  1.13e-03  6.33e-04     5.0
    9    -1531.7330378232531984    -2.82e-05  8.05e-06  5.84e-04  5.78e-05     4.3
   10    -1531.7330374022717479     4.21e-07  3.09e-06  4.09e-04  8.78e-05     3.9
   11    -1531.7330382034765535    -8.01e-07  3.10e-06  4.40e-04  9.02e-06     3.4
   12    -1531.7330382463155729    -4.28e-08  8.12e-07  6.05e-05  1.51e-05     3.1
   13    -1531.7330381933211356     5.30e-08  2.95e-06  4.09e-04  3.42e-06     2.8
   14    -1531.7330381726237647     2.07e-08  5.68e-07  8.28e-05  6.01e-06     2.8
   15    -1531.7330382736477077    -1.01e-07  1.57e-06  1.71e-04  5.70e-07     2.5
                  *** Gradient check signals convergence ***

               *****************************************************
[...]
  52 C     6.0000    0    12.011   -3.855782    7.812327    1.016237
  53 C     6.0000    0    12.011   -4.422701    8.838952    3.657349
  54 H     1.0000    0     1.008   -2.028588    6.880210    0.883246
  55 H     1.0000    0     1.008   -4.051547    9.240127   -0.459004
  56 H     1.0000    0     1.008   -4.296412   10.886055    3.795073
  57 H     1.0000    0     1.008   -3.260677    7.956118    5.111256

--------------------------------
INTERNAL COORDINATES (ANGSTROEM)
--------------------------------
 O      0   0   0     0.000000000000     0.00000000     0.00000000
 O      1   0   0     6.302148422728     0.00000000     0.00000000
 C      1   2   0     2.436924760732    63.74162521     0.00000000
 C      3   1   2     1.489043150275    93.53844089   359.97670564
 C      2   1   3     2.430802970441    29.79592790   286.24342580
 C      5   2   1     1.393366050137   146.24263578    43.88514897
 C      3   1   2     2.447849901946   117.62481510   178.20000240
 C      7   3   1     1.394168486074    28.70573312   178.18161369
 C      1   2   3     1.369368027462    92.72067510     1.30757748
 C      4   3   1     1.395844442222   121.77489965   243.97169882
 C      2   1   3     1.372563514733    23.45360418   353.44587048
 C      5   2   1     1.516322230867    93.00163929   226.73110253
 C      7   3   1     1.517440700601   149.42781277   178.80027741
 C      7   3   1     1.393202555185    89.12968298   357.93833170
 C     10   4   3     1.387130415018   120.76222874   181.00914461
 C     14   7   3     1.388352355406   120.93266628     1.26550052
 C     12   5   2     1.506584835863   113.84510012   301.22512609
 C     13   7   3     1.504160724001   113.45189352    63.97927262
 C     17  12   5     1.330595919529   125.05487350   127.10190419
 C     18  13   7     1.327664263851   125.17512400   237.08925342
 H      6   5   2     1.083652393389   118.36514097   182.81584418
 H      8   7   3     1.084334101595   119.19561459   178.12296787
 H     10   4   3     1.082839045574   119.66482357     1.91505748
 H     12   5   2     1.094608070600   110.80208218    65.10033316
 H     12   5   2     1.092914071017   107.88861281   180.35766749
 H     13   7   3     1.094343023899   110.16650336   301.36607414
 H     13   7   3     1.095098626063   108.33204827   185.13196184
 H     14   7   3     1.084302570879   119.73785809   180.15036050
 H     15  10   4     1.082450497465   121.01477438   180.61247730
 H     16  14   7     1.082664056679   121.01921533   177.79194067
 H     17  12   5     1.087452793058   115.79537338   307.21352938
 H     18  13   7     1.087421017662   115.57247863    56.66761894
 H      1   2   3     0.974225678413    41.14895881   241.24251442
 H      2   1   3     0.969474868023   109.45658944   258.39431116
 H     19  17  12     1.082861711982   121.58146953   179.28864213
 H     19  17  12     1.085310397192   121.52825483     0.83608777
 H     20  18  13     1.082962559249   121.65781494   180.12460459
 H     20  18  13     1.084937194396   121.57801715     0.02638098
 H     24  12   5     4.936840537748   140.17630191    13.52235137
 H     39  24  12     2.420167724357    84.44253798   294.12798447
 C     39  24  12     1.091143220873    21.92806506   323.25873444
 O     40  39  24     2.062421007781    80.41773943    65.79506895
 C     42  40  39     1.342679269983   130.19828985   350.25086551
 C     40  39  24     1.087513957800    65.17524555    24.96965452
 O     43  42  40     1.347680251566   111.11083978   344.23917295
 O     43  42  40     1.197176620500   124.82468848   163.63520207
 H     41  39  24     1.086731924360   109.94202809   332.19412862
 H     44  40  39     1.090535485977   110.20116858   222.24073935
 O     47  41  39     2.584647430226   127.84854925    95.33770615
 C     49  47  41     1.195160967056   107.15996448     2.39646663
 O     50  49  47     1.348923678980   124.59237717   107.53037120
 O     50  49  47     1.350229819171   124.58259642   287.49117227
 C     51  50  49     1.442333979709   110.00204251   176.36251565
 C     52  50  49     1.440069275194   109.44394226   170.15880055
 H     53  51  50     1.087734734774   108.67145946   134.59050606
 H     53  51  50     1.091346916741   108.18130831   254.73026220
 H     54  52  50     1.087784031114   108.48556861   138.97720749
 H     54  52  50     1.090097604074   108.46124331   258.64321820

---------------------------
INTERNAL COORDINATES (A.U.)
---------------------------
 O      0   0   0     0.000000000000     0.00000000     0.00000000
 O      1   0   0    11.909334574279     0.00000000     0.00000000
 C      1   2   0     4.605120406755    63.74162521     0.00000000
 C      3   1   2     2.813883755610    93.53844089   359.97670564
 C      2   1   3     4.593551899657    29.79592790   286.24342580
 C      5   2   1     2.633080239062   146.24263578    43.88514897
 C      3   1   2     4.625765931624   117.62481510   178.20000240
 C      7   3   1     2.634596623223    28.70573312   178.18161369
 C      1   2   3     2.587730548452    92.72067510     1.30757748
 C      4   3   1     2.637763721356   121.77489965   243.97169882
 C      2   1   3     2.593769144258    23.45360418   353.44587048
 C      5   2   1     2.865433747115    93.00163929   226.73110253
 C      7   3   1     2.867547348602   149.42781277   178.80027741
 C      7   3   1     2.632771278380    89.12968298   357.93833170
 C     10   4   3     2.621296596416   120.76222874   181.00914461
 C     14   7   3     2.623605729101   120.93266628     1.26550052
 C     12   5   2     2.847032737300   113.84510012   301.22512609
 C     13   7   3     2.842451829763   113.45189352    63.97927262
 C     17  12   5     2.514461882823   125.05487350   127.10190419
 C     18  13   7     2.508921856473   125.17512400   237.08925342
 H      6   5   2     2.047806247873   118.36514097   182.81584418
 H      8   7   3     2.049094489686   119.19561459   178.12296787
 H     10   4   3     2.046269243252   119.66482357     1.91505748
 H     12   5   2     2.068509477413   110.80208218    65.10033316
 H     12   5   2     2.065308282131   107.88861281   180.35766749
 H     13   7   3     2.068008611737   110.16650336   301.36607414
 H     13   7   3     2.069436492892   108.33204827   185.13196184
 H     14   7   3     2.049034905269   119.73785809   180.15036050
 H     15  10   4     2.045534993736   121.01477438   180.61247730
 H     16  14   7     2.045938562164   121.01921533   177.79194067
 H     17  12   5     2.054987962447   115.79537338   307.21352938
 H     18  13   7     2.054927915651   115.57247863    56.66761894
 H      1   2   3     1.841019724835    41.14895881   241.24251442
 H      2   1   3     1.832041994283   109.45658944   258.39431116
 H     19  17  12     2.046312076555   121.58146953   179.28864213
 H     19  17  12     2.050939420990   121.52825483     0.83608777
 H     20  18  13     2.046502650272   121.65781494   180.12460459
 H     20  18  13     2.050234169912   121.57801715     0.02638098
 H     24  12   5     9.329276583185   140.17630191    13.52235137
 H     39  24  12     4.573454197189    84.44253798   294.12798447
 C     39  24  12     2.061961860334    21.92806506   323.25873444
 O     40  39  24     3.897410877552    80.41773943    65.79506895
 C     42  40  39     2.537296105962   130.19828985   350.25086551
 C     40  39  24     2.055103547059    65.17524555    24.96965452
 O     43  42  40     2.546746591553   111.11083978   344.23917295
 O     43  42  40     2.262335946679   124.82468848   163.63520207
 H     41  39  24     2.053625718029   109.94202809   332.19412862
 H     44  40  39     2.060813407819   110.20116858   222.24073935
 O     47  41  39     4.884275795870   127.84854925    95.33770615
 C     49  47  41     2.258526913688   107.15996448     2.39646663
 O     50  49  47     2.549096328834   124.59237717   107.53037120
 O     50  49  47     2.551564576086   124.58259642   287.49117227
 C     51  50  49     2.725616215299   110.00204251   176.36251565
 C     52  50  49     2.721336543990   109.44394226   170.15880055
 H     53  51  50     2.055520755076   108.67145946   134.59050606
 H     53  51  50     2.062346789740   108.18130831   254.73026220
 H     54  52  50     2.055613911658   108.48556861   138.97720749
 H     54  52  50     2.059985930944   108.46124331   258.64321820

--------------------------------------------------------------------------
WARNING: There was an error initializing an OpenFabrics device.

  Local host:   ga00
  Local device: mlx5_0
--------------------------------------------------------------------------


           ************************************************************
           *        Program running with 25 parallel MPI-processes    *
           *              working on a common directory               *
           ************************************************************
------------------------------------------------------------------------------
                   ___                                                        
                  /   \      - P O W E R E D   B Y -                         
                 /     \                                                     
                 |  |  |   _    _      __       _____    __    __             
                 |  |  |  | |  | |    /  \     |  _  \  |  |  /  |          
                  \  \/   | |  | |   /    \    | | | |  |  | /  /          
                 / \  \   | |__| |  /  /\  \   | |_| |  |  |/  /          
                |  |  |   |  __  | /  /__\  \  |    /   |      \           
                |  |  |   | |  | | |   __   |  |    \   |  |\   \          
                \     /   | |  | | |  |  |  |  | |\  \  |  | \   \       
                 \___/    |_|  |_| |__|  |__|  |_| \__\ |__|  \__/        
                                                                              
                      - O R C A' S   B I G   F R I E N D -                    
                                      &                                       
                       - I N T E G R A L  F E E D E R -                       
                                                                              
 v1 FN, 2020, v2 2021, v3 2022-2024                                           
------------------------------------------------------------------------------


----------------------
SHARK INTEGRAL PACKAGE
----------------------

Number of atoms                             ...     58
Number of basis functions                   ...   1148
Number of shells                            ...    456
Maximum angular momentum                    ...      3
Integral batch strategy                     ... SHARK/LIBINT Hybrid
RI-J (if used) integral strategy            ... SPLIT-RIJ (Revised 2003 algorithm where possible)
Printlevel                                  ...      1
Contraction scheme used                     ... SEGMENTED contraction
Prescreening option                         ... SCHWARTZ
   Thresh                                   ... 2.500e-11
   Tcut                                     ... 2.500e-12
   Tpresel                                  ... 2.500e-12 
Coulomb Range Separation                    ... NOT USED
Exchange Range Separation                   ... NOT USED
Multipole approximations                    ... NOT USED
Finite Nucleus Model                        ... NOT USED
CABS basis                                  ... NOT available
Auxiliary Coulomb fitting basis             ... AVAILABLE
   # of basis functions in Aux-J            ...   1854
   # of shells in Aux-J                     ...    610
   Maximum angular momentum in Aux-J        ...      4
Auxiliary J/K fitting basis                 ... NOT available
Auxiliary Correlation fitting basis         ... NOT available
Auxiliary 'external' fitting basis          ... NOT available

Checking pre-screening integrals            ... done (  0.0 sec) Dimension = 456
Check shell pair data                       ... done (  0.0 sec)
Shell pair information
Shell pair cut-off parameter TPreSel        ...   2.5e-12
Total number of shell pairs                 ...    104196
Shell pairs after pre-screening             ...     62322
Total number of primitive shell pairs       ...    317988
Primitive shell pairs kept                  ...    120113
          la=0 lb=0:  16528 shell pairs
          la=1 lb=0:  18427 shell pairs
          la=1 lb=1:   5174 shell pairs
          la=2 lb=0:   8603 shell pairs
          la=2 lb=1:   4920 shell pairs
          la=2 lb=2:   1166 shell pairs
          la=3 lb=0:   3923 shell pairs
          la=3 lb=1:   2309 shell pairs
          la=3 lb=2:   1027 shell pairs
          la=3 lb=3:    245 shell pairs

Calculating one electron integrals          ... done (  0.1 sec)
Calculating RI/J V-Matrix + Cholesky decomp.... done (  0.1 sec)
Calculating Nuclear repulsion               ... done (  0.0 sec) ENN=   3326.790498645740 Eh

Diagonalization of the overlap matrix:
Smallest eigenvalue                        ... 5.619e-06
Time for diagonalization                   ...    0.223 sec
Threshold for overlap eigenvalues          ... 1.000e-07
Number of eigenvalues below threshold      ... 0
Time for construction of square roots      ...    0.098 sec
Total time needed                          ...    0.331 sec

-------------------
DFT GRID GENERATION
-------------------

General Integration Accuracy     IntAcc      ... 4.388
Radial Grid Type                 RadialGrid  ... OptM3 with GC (2021)
Angular Grid (max. ang.)         AngularGrid ... 4 (Lebedev-302)
Angular grid pruning method      GridPruning ... 4 (adaptive)
Weight generation scheme         WeightScheme... mBecke (2022)
Basis function cutoff            BFCut       ... 1.0000e-11
Integration weight cutoff        WCut        ... 1.0000e-14
Partially contracted basis set               ... off
Rotationally invariant grid construction     ... off
Angular grids for H and He will be reduced by one unit

Total number of grid points                  ...   273841
Total number of batches                      ...     4307
Average number of points per batch           ...       63
Average number of grid points per atom       ...     4721

--------------------
COSX GRID GENERATION
--------------------

GRIDX 1
-------
General Integration Accuracy     IntAcc      ... 3.816
Radial Grid Type                 RadialGrid  ... OptM3 with GC (2021)
Angular Grid (max. ang.)         AngularGrid ... 1 (Lebedev-50)
Angular grid pruning method      GridPruning ... 4 (adaptive)
Weight generation scheme         WeightScheme... mBecke (2022)
Basis function cutoff            BFCut       ... 1.0000e-11
Integration weight cutoff        WCut        ... 1.0000e-14
Partially contracted basis set               ... on
Rotationally invariant grid construction     ... off
Angular grids for H and He will be reduced by one unit

Total number of grid points                  ...    34677
Total number of batches                      ...      310
Average number of points per batch           ...      111
Average number of grid points per atom       ...      598
UseSFitting                                  ... on

GRIDX 2
-------
General Integration Accuracy     IntAcc      ... 4.020
Radial Grid Type                 RadialGrid  ... OptM3 with GC (2021)
Angular Grid (max. ang.)         AngularGrid ... 2 (Lebedev-110)
Angular grid pruning method      GridPruning ... 4 (adaptive)
Weight generation scheme         WeightScheme... mBecke (2022)
Basis function cutoff            BFCut       ... 1.0000e-11
Integration weight cutoff        WCut        ... 1.0000e-14
Partially contracted basis set               ... on
Rotationally invariant grid construction     ... off
Angular grids for H and He will be reduced by one unit

Total number of grid points                  ...    74770
Total number of batches                      ...      616
Average number of points per batch           ...      121
Average number of grid points per atom       ...     1289
UseSFitting                                  ... on

GRIDX 3
-------
General Integration Accuracy     IntAcc      ... 4.338
Radial Grid Type                 RadialGrid  ... OptM3 with GC (2021)
Angular Grid (max. ang.)         AngularGrid ... 3 (Lebedev-194)
Angular grid pruning method      GridPruning ... 4 (adaptive)
Weight generation scheme         WeightScheme... mBecke (2022)
Basis function cutoff            BFCut       ... 1.0000e-11
Integration weight cutoff        WCut        ... 1.0000e-14
Partially contracted basis set               ... on
Rotationally invariant grid construction     ... off
Angular grids for H and He will be reduced by one unit

Total number of grid points                  ...   163274
Total number of batches                      ...     1301
Average number of points per batch           ...      125
Average number of grid points per atom       ...     2815
UseSFitting                                  ... on
Initializing property integral containers    ... done (  0.0 sec)

SHARK setup successfully completed in   4.2 seconds

Maximum memory used throughout the entire STARTUP-calculation: 139.1 MB
[ga00:3399968] 24 more processes have sent help message help-mpi-btl-openib.txt / error in device init
[ga00:3399968] Set MCA parameter "orte_base_help_aggregate" to 0 to see all help / error messages
--------------------------------------------------------------------------
WARNING: There was an error initializing an OpenFabrics device.

  Local host:   ga00
  Local device: mlx5_0
--------------------------------------------------------------------------


           ************************************************************
           *        Program running with 25 parallel MPI-processes    *
           *              working on a common directory               *
           ************************************************************
Occupation numbers will be reassigned to an Aufbau configuration
             **** ENERGY FILE WAS UPDATED (honokiol2-opt_EC2_closer.en.tmp) ****
Finished Guess after   1.8 sec
Maximum memory used throughout the entire GUESS-calculation: 136.5 MB
[ga00:3400102] 24 more processes have sent help message help-mpi-btl-openib.txt / error in device init
[ga00:3400102] Set MCA parameter "orte_base_help_aggregate" to 0 to see all help / error messages
--------------------------------------------------------------------------
WARNING: There was an error initializing an OpenFabrics device.

  Local host:   ga00
  Local device: mlx5_0
--------------------------------------------------------------------------
[ga00:3400220] *** Process received signal ***
[ga00:3400220] Signal: Segmentation fault (11)
[ga00:3400220] Signal code: Address not mapped (1)
[ga00:3400220] Failing at address: (nil)
[ga00:3400220] [ 0] /usr/lib64/libpthread.so.0(+0x12cf0)[0x14db3d21bcf0]
[ga00:3400220] [ 1] /usr/lib64/libc.so.6(+0xc84d2)[0x14db3cf0b4d2]
[ga00:3400220] [ 2] /home/yongsang/.openmpi/lib/libopen-rte.so.40(+0x2b27d)[0x14db3e30627d]
[ga00:3400220] [ 3] /home/yongsang/.openmpi/lib/libopen-rte.so.40(orte_show_help_recv+0x147)[0x14db3e3066f7]
[ga00:3400220] [ 4] /home/yongsang/.openmpi/lib/libopen-rte.so.40(orte_rml_base_process_msg+0x39b)[0x14db3e36221b]
[ga00:3400220] [ 5] /home/yongsang/.openmpi/lib/libopen-pal.so.40(opal_libevent2022_event_base_loop+0x769)[0x14db3e0505b9]
[ga00:3400220] [ 6] mpirun[0x400f39]
[ga00:3400220] [ 7] /usr/lib64/libc.so.6(__libc_start_main+0xe5)[0x14db3ce7dd85]
[ga00:3400220] [ 8] mpirun[0x400cde]
[ga00:3400220] *** End of error message ***

ORCA finished by error termination in LEANSCF
Calling Command: mpirun -np 25  /home/yongsang/orca_6_0_1_linux_x86-64_shared_openmpi416/orca_leanscf_mpi honokiol2-opt_EC2_closer.gbw honokiol2-opt_EC2_closer 
[file orca_tools/qcmsg.cpp, line 394]: 
  .... aborting the run

[file orca_tools/qcmsg.cpp, line 394]: 
  .... aborting the run

