
                                 *****************
                                 * O   R   C   A *
                                 *****************

                                            #,                                       
                                            ###                                      
                                            ####                                     
                                            #####                                    
                                            ######                                   
                                           ########,                                 
                                     ,,################,,,,,                         
                               ,,#################################,,                 
                          ,,##########################################,,             
                       ,#########################################, ''#####,          
                    ,#############################################,,   '####,        
                  ,##################################################,,,,####,       
                ,###########''''           ''''###############################       
              ,#####''   ,,,,##########,,,,          '''####'''          '####       
            ,##' ,,,,###########################,,,                        '##       
           ' ,,###''''                  '''############,,,                           
         ,,##''                                '''############,,,,        ,,,,,,###''
      ,#''                                            '''#######################'''  
     '                                                          ''''####''''         
             ,#######,   #######,   ,#######,      ##                                
            ,#'     '#,  ##    ##  ,#'     '#,    #''#        ,####,   ,####,        
            ##       ##  ##   ,#'  ##            #'  '#       #'       #'  '#        
            ##       ##  #######   ##           ,######,      #####,   #    #        
            '#,     ,#'  ##    ##  '#,     ,#' ,#      #,     #,   #   #,  ,#        
             '#######'   ##     ##  '#######'  #'      '#     '####' # '####'        



                #########################################################
                #                        -***-                          #
                #          Department of theory and spectroscopy        #
                #                                                       #
                #                      Frank Neese                      #
                #                                                       #
                #     Directorship, Architecture, Infrastructure        #
                #                    SHARK, DRIVERS                     #
                #        Core code/Algorithms in most modules           #
                #                                                       #
                #        Max Planck Institute fuer Kohlenforschung      #
                #                Kaiser Wilhelm Platz 1                 #
                #                 D-45470 Muelheim/Ruhr                 #
                #                      Germany                          #
                #                                                       #
                #                  All rights reserved                  #
                #                        -***-                          #
                #########################################################


                         Program Version 6.0.1  -  RELEASE   -


 With contributions from (in alphabetic order):
[Max-Planck-Institut fuer Kohlenforschung]                               
  Daniel Aravena         : Magnetic Suceptibility                        
  Michael Atanasov       : Ab Initio Ligand Field Theory (pilot matlab implementation)
  Alexander A. Auer      : GIAO ZORA, VPT2 properties, NMR spectrum      
  Ute Becker             : All parallelization in ORCA, NUMFREQ, NUMCALC 
  Giovanni Bistoni       : ED, misc. LED, open-shell LED, HFLD           
  Martin Brehm           : Molecular dynamics                            
  Dmytro Bykov           : pre 5.0 version of the SCF Hessian            
  Marcos Casanova-Páez   : Triplet and SCS-CIS(D). UHF-(DLPNO)-IP/EA/STEOM-CCSD. UHF-CVS-IP/STEOM-CCSD   
  Vijay G. Chilkuri      : MRCI spin determinant printing, contributions to CSF-ICE 
  Pauline Colinet        : FMM embedding                                 
  Dipayan Datta          : RHF DLPNO-CCSD density                        
  Achintya Kumar Dutta   : EOM-CC, STEOM-CC                              
  Nicolas Foglia         : Exact transition moments, OPA infrastructure, MCD improvements    
  Dmitry Ganyushin       : Spin-Orbit,Spin-Spin,Magnetic field MRCI      
  Miquel Garcia-Rates    : C-PCM and meta-GGA Hessian, CCSD/C-PCM, Gaussian charge scheme 
  Tiago L. C. Gouveia    : GS-ROHF, GS-ROCIS                             
  Yang Guo               : DLPNO-NEVPT2, F12-NEVPT2, CIM, IAO-localization        
  Andreas Hansen         : Spin unrestricted coupled pair/coupled cluster methods 
  Ingolf Harden          : AUTO-CI MPn and infrastructure                
  Benjamin Helmich-Paris : MC-RPA, TRAH-(SCF,CASSCF), AVAS, COSX integrals, SCF dyn. polar. 
  Lee Huntington         : MR-EOM, pCC                                   
  Robert Izsak           : Overlap fitted RIJCOSX, COSX-SCS-MP3, EOM     
  Riya Kayal             : Wick's Theorem for AUTO-CI, AUTO-CI UHF-CCSDT 
  Emily Kempfer          : AUTO-CI, RHF CISDT and CCSDT                  
  Christian Kollmar      : KDIIS, OOCD, Brueckner-CCSD(T), CCSD density, CASPT2, CASPT2-K, improved NEVPT2 
  Axel Koslowski         : Symmetry handling                             
  Simone Kossmann        : meta-GGA functionals, TD-DFT gradient, OOMP2, (MP2 Hessian; deprecated post 5.0) 
  Lucas Lang             : DCDCAS                                        
  Marvin Lechner         : AUTO-CI (C++ implementation), FIC-MRCC        
  Spencer Leger          : CASSCF response                               
  Dagmar Lenk            : GEPOL surface, SMD, ORCA-2-JSON               
  Dimitrios Liakos       : Extrapolation schemes; Compound Job, initial MDCI parallelization 
  Dimitrios Manganas     : Further ROCIS development; embedding schemes. LFT, Crystal Embedding 
  Dimitrios Pantazis     : SARC Basis sets                               
  Anastasios Papadopoulos: AUTO-CI, single reference methods and gradients 
  Taras Petrenko         : pre 6.0 DFT Hessian and TD-DFT gradient, (ASA, deprecated), ECA, 1-Electron XAS/XES, NRVS 
  Peter Pinski           : DLPNO-MP2, DLPNO-MP2 Gradient                 
  Christoph Reimann      : Effective Core Potentials                     
  Marius Retegan         : Local ZFS, SOC                                
  Christoph Riplinger    : Optimizer, TS searches, QM/MM, DLPNO-CCSD(T), (RO)-DLPNO pert. Triples 
  Michael Roemelt        : Original ROCIS implementation                 
  Masaaki Saitow         : Open-shell DLPNO-CCSD energy and density      
  Barbara Sandhoefer     : DKH picture change effects                    
  Kantharuban Sivalingam : CASSCF convergence/infrastructure, NEVPT2 and variants, FIC-MRCI 
  Bernardo de Souza      : ESD, SOC TD-DFT                               
  Georgi L. Stoychev     : AutoAux, RI-MP2 NMR, DLPNO-MP2 response, X2C  
  Van Anh Tran           : RI-MP2 g-tensors                              
  Willem Van den Heuvel  : Paramagnetic NMR                              
  Zikuan Wang            : NOTCH, Electric field optimization            
  Frank Wennmohs         : Technical directorship and infrastructure     
  Hang Xu                : AUTO-CI-Response properties                   
                                                                         
[FACCTs GmbH]                                                            
  Markus Bursch, Miquel Garcia-Rates, Christoph Riplinger, Bernardo de Souza, Georgi L. Stoychev 
                                                                 
  APM, Basis sets (HGBS, AHGBS, def-TZVP (Ac-Lr), def2-XVPD (La-Lu)), CI-OPT, improved COSX, DLPNO-Multilevel,           
  DOCKER, DRACO, updates on ESD, GOAT, IRC, LR-CPCM, MBIS, meta-GGA TD-DFT gradient, ML-optimized integration grids, 
  MM, NACMEs, nearIR, NEB, NEB-TS, NL-DFT gradient (VV10), 2- and 3-layer-ONIOM, interface openCOSMO-RS, QMMM,   
  Crystal-QMMM, SF, symmetry and pop. for TD-DFT, r2SCAN hybrids, SOLVATOR                                   
                                                                         
[Other institutions]                                                     
  V. Asgeirsson          : NEB                                           
  Christoph Bannwarth    : sTDA-DFT, sTD-DFT, PBEh-3c, B97-3c, D3        
  Sebastian Ehlert       : rSCAN, r2SCAN, r2SCAN-3c, D4, dhf basis sets  
  Marvin Friede          : D4 for Fr, Ra, Ac-Lr                          
  Lars Goerigk           : TD-DFT with DH, B97 family of functionals     
  Stefan Grimme          : VdW corrections, initial TS optimization, DFT functionals, gCP, sTDA/sTD-DF 
  Waldemar Hujo          : DFT-NL                                        
  H. Jonsson             : NEB                                           
  Holger Kruse           : gCP                                           
  Marcel Mueller         : wB97X-3c, vDZP basis set                      
  Hagen Neugebauer       : wr2SCAN                                       
  Tobias Risthaus        : range-separated hybrid DFT                    
  Lukas Wittmann         : regularized MP2, r2SCAN double-hybrids, wr2SCAN        
                                                                         
We gratefully acknowledge several colleagues who have allowed us to      
interface, adapt or use parts of their codes:                            
  Ed Valeev, F. Pavosevic, A. Kumar             : LibInt (2-el integral package), F12 methods 
  Garnet Chan, S. Sharma, J. Yang, R. Olivares  : DMRG                   
  Ulf Ekstrom                                   : XCFun DFT Library      
  Mihaly Kallay                                 : mrcc  (arbitrary order and MRCC methods)
  Frank Weinhold                                : gennbo (NPA and NBO analysis)           
  Simon Mueller                                 : openCOSMO-RS                            
  Christopher J. Cramer and Donald G. Truhlar   : smd solvation model                     
  S Lehtola, MJT Oliveira, MAL Marques          : LibXC Library                           
  Liviu Ungur et al                             : ANISO software                          


 Your calculation uses the libint2 library for the computation of 2-el integrals
 For citations please refer to: http://libint.valeyev.net

 Your ORCA version has been built with support for libXC version: 6.2.2
 For citations please refer to: https://libxc.gitlab.io

 This ORCA versions uses:
   CBLAS   interface :  Fast vector & matrix operations
   LAPACKE interface :  Fast linear algebra routines
   SCALAPACK package :  Parallel linear algebra routines
   Shared memory     :  Shared parallel matrices
   BLAS/LAPACK       :  OpenBLAS 0.3.27  USE64BITINT DYNAMIC_ARCH NO_AFFINITY SkylakeX SINGLE_THREADED
        Core in use  :  SkylakeX
   Copyright (c) 2011-2014, The OpenBLAS Project


NOTE: MaxCore=5000 MB was set to SCF,MP2,MDCI,CIPSI,MRCI and CIS
      => If you want to overwrite this, your respective input block should be placed after the MaxCore statement
Warning: RI is on but no J-basis has been assigned. Assigning Def2/J (nothing to worry about!)
================================================================================

----- Orbital basis set information -----
Your calculation utilizes the basis: def2-TZVP
   F. Weigend and R. Ahlrichs, Phys. Chem. Chem. Phys. 7, 3297 (2005).

----- AuxJ basis set information -----
Your calculation utilizes the auxiliary basis: def2/J
   F. Weigend, Phys. Chem. Chem. Phys. 8, 1057 (2006).

================================================================================
                                        WARNINGS
                       Please study these warnings very carefully!
================================================================================


WARNING: Geometry Optimization
  ===> : Switching off AutoStart
         For restart on a previous wavefunction, please use MOREAD

================================================================================
                                       INPUT FILE
================================================================================
NAME = honokiol2-opt_EC_closer.inp
|  1> ! OPT B3LYP def2-TZVP TightSCF
|  2> 
|  3> %maxcore 5000
|  4> 
|  5> %pal
|  6> nprocs 25
|  7> end
|  8> 
|  9> * xyz 0 1
| 10> O           1.10349678401817      1.43913431885050      2.39982084250624
| 11>   O          -3.83944784098918     -2.50959461971348      1.80329904467252
| 12>   C           1.05205734708098     -0.00570823677032      0.42846309134339
| 13>   C          -0.23802970564575     -0.65183468881503      0.78251397830878
| 14>   C          -2.52388281417182     -1.27960840503017      0.16754133277369
| 15>   C          -1.30529663995654     -0.66687944638500     -0.11826443541929
| 16>   C           2.94680828142631      0.15155695960870     -1.11812788327057
| 17>   C           1.71266196361386     -0.37557000602734     -0.74669774589210
| 18>   C           1.65234745383041      0.96858113605050      1.24910636980427
| 19>   C          -0.41396952282495     -1.29971047509980      2.00900673433759
| 20>   C          -2.66260300251952     -1.91982643436022      1.40668384041758
| 21>   C          -3.67366051455423     -1.21431533851238     -0.81809807124663
| 22>   C           3.63332065595739     -0.29910681008062     -2.39416827040190
| 23>   C           3.52929525130173      1.09255598411785     -0.27041678931572
| 24>   C          -1.60788055682102     -1.93442298425862      2.31335354617263
| 25>   C           2.89069402965757      1.49899392696813      0.89119927722162
| 26>   C          -4.16652109086246     -2.56485703351592     -1.26992031902101
| 27>   C           2.86141619722831      0.03663671046941     -3.64027389487744
| 28>   C          -5.42606843359013     -2.98576173475672     -1.18966834108039
| 29>   C           2.45792181375027     -0.84087497322935     -4.55162634618610
| 30>   H          -1.19286408570308     -0.15746108965008     -1.06869660495990
| 31>   H           1.24815553001020     -1.12456976908655     -1.37849915646302
| 32>   H           0.39603049402119     -1.31645261796085      2.72679623141656
| 33>   H          -4.51008544597326     -0.65142559089073     -0.38904681866892
| 34>   H          -3.33699751282620     -0.65025113223676     -1.69243406495522
| 35>   H           3.81648533196288     -1.37796295626136     -2.36585982076148
| 36>   H           4.61567206348159      0.18231003873609     -2.44398706415966
| 37>   H           4.49311458637494      1.52052561687627     -0.52296832472316
| 38>   H          -1.73741429602825     -2.45257138982989      3.25498529230813
| 39>   H           3.33094249172676      2.24743069558642      1.53764240907358
| 40>   H          -3.41059472396140     -3.22844687078626     -1.68208391875723
| 41>   H           2.62421458558633      1.08930678630262     -3.77540021765460
| 42>   H           0.14164018225570      1.31512678144395      2.44782662019089
| 43>   H          -4.35725246800479     -2.76361599961831      1.02488119981502
| 44>   H          -5.71860783634099     -3.96883060179758     -1.53647067543423
| 45>   H          -6.21371998606082     -2.35242971743533     -0.79351107892732
| 46>   H           1.90662606459438     -0.53334033828931     -5.43169580122130
| 47>   H           2.66887084542792     -1.90054703066045     -4.45244594396667
| 48>   H          -5.57009038288037      1.46130782879644      4.07442866806993
| 49>   H          -4.58907944458927     -0.08766007087457      5.64652986774924
| 50>   C          -4.96862804832619      0.67647914833722      3.61286486937167
| 51>   O          -2.88299164044064      0.40005075494076      4.60014368368009
| 52>   C          -2.74034649925194      1.15814048599157      3.49309750422415
| 53>   C          -4.20267333744268     -0.17029051937973      4.63286164762268
| 54>   O          -3.92042302681339      1.29512248625745      2.84956835519560
| 55>   O          -1.71506208950333      1.64992679770109      3.13382842073830
| 56>   H          -5.58368420016077      0.08341939408611      2.94001876591398
| 57>   H          -4.13692346526385     -1.21793248360834      4.33915674063571
| 58> *
| 59> 
| 60>                          ****END OF INPUT****
================================================================================

                       *****************************
                       * Geometry Optimization Run *
                       *****************************

Geometry optimization settings:
Update method            Update   .... BFGS
Choice of coordinates    CoordSys .... (2022) Redundant Internals
Initial Hessian          InHess   .... Almloef's Model
Max. no of cycles        MaxIter  .... 144

Convergence Tolerances:
Energy Change            TolE     ....  5.0000e-06 Eh
Max. Gradient            TolMAXG  ....  3.0000e-04 Eh/bohr
RMS Gradient             TolRMSG  ....  1.0000e-04 Eh/bohr
Max. Displacement        TolMAXD  ....  4.0000e-03 bohr
RMS Displacement         TolRMSD  ....  2.0000e-03 bohr
Strict Convergence                .... False

------------------------------------------------------------------------------
                        ORCA OPTIMIZATION COORDINATE SETUP
------------------------------------------------------------------------------

The optimization will be done in redundant internal coordinates (2022)
Making redundant internal coordinates   ...  (2022 redundants) done
Evaluating the initial hessian          ...  (Almloef) done
Evaluating the coordinates              ...  done
Calculating the B-matrix                .... done
Calculating the G-matrix                .... done
Diagonalizing the G-matrix              .... done
Small eigenvalue found = 1.747e-03
Small eigenvalue found = 2.892e-03
Small eigenvalue found = 4.120e-03
Small eigenvalue found = 8.901e-03
Small eigenvalue found = 1.262e-02
Small eigenvalue found = 1.410e-02
Small eigenvalue found = 1.683e-02
Small eigenvalue found = 2.333e-02
The first mode is                       ....   98
The number of degrees of freedom        ....  138

    -----------------------------------------------------------------
                    Redundant Internal Coordinates


    -----------------------------------------------------------------
         Definition                    Initial Value    Approx d2E/dq
    -----------------------------------------------------------------
      1. B(C   3,C   2)                  1.4857         0.439678   
      2. B(C   5,C   4)                  1.3936         0.616626   
      3. B(C   5,C   3)                  1.3967         0.609673   
      4. B(C   7,C   6)                  1.3925         0.619179   
      5. B(C   7,C   2)                  1.3979         0.606865   
      6. B(C   8,C   2)                  1.4082         0.584376   
      7. B(C   8,O   0)                  1.3590         0.627164   
      8. B(C   9,C   3)                  1.3982         0.606241   
      9. B(C  10,C   4)                  1.4016         0.598641   
     10. B(C  10,O   1)                  1.3748         0.591719   
     11. B(C  11,C   4)                  1.5158         0.393538   
     12. B(C  12,C   6)                  1.5175         0.391191   
     13. B(C  13,C   6)                  1.3941         0.615562   
     14. B(C  14,C  10)                  1.3909         0.622652   
     15. B(C  14,C   9)                  1.3860         0.634117   
     16. B(C  15,C  13)                  1.3865         0.632904   
     17. B(C  15,C   8)                  1.3939         0.615925   
     18. B(C  16,C  11)                  1.5070         0.406527   
     19. B(C  17,C  12)                  1.5038         0.411356   
     20. B(C  18,C  16)                  1.3304         0.777622   
     21. B(C  19,C  17)                  1.3279         0.784815   
     22. B(H  20,C   5)                  1.0842         0.367868   
     23. B(H  21,C   7)                  1.0844         0.367575   
     24. B(H  22,C   9)                  1.0824         0.370288   
     25. B(H  23,C  11)                  1.0957         0.352651   
     26. B(H  24,C  11)                  1.0936         0.355361   
     27. B(H  25,C  12)                  1.0947         0.353987   
     28. B(H  26,C  12)                  1.0951         0.353408   
     29. B(H  27,C  13)                  1.0844         0.367607   
     30. B(H  28,C  14)                  1.0826         0.370084   
     31. B(H  29,C  15)                  1.0825         0.370123   
     32. B(H  30,C  16)                  1.0870         0.364038   
     33. B(H  31,C  17)                  1.0875         0.363434   
     34. B(H  32,O   0)                  0.9710         0.499355   
     35. B(H  33,O   1)                  0.9688         0.503407   
     36. B(H  34,C  18)                  1.0827         0.369865   
     37. B(H  35,C  18)                  1.0856         0.366019   
     38. B(H  36,C  19)                  1.0831         0.369394   
     39. B(H  37,C  19)                  1.0850         0.366765   
     40. B(C  40,H  38)                  1.0912         0.358494   
     41. B(C  42,O  41)                  1.3493         0.649855   
     42. B(C  43,O  41)                  1.4380         0.469086   
     43. B(C  43,C  40)                  1.5310         0.372143   
     44. B(C  43,H  39)                  1.0880         0.362806   
     45. B(O  44,C  42)                  1.3511         0.645559   
     46. B(O  44,C  40)                  1.4367         0.471396   
     47. B(O  45,H  32)                  2.0075         0.011086   
     48. B(O  45,C  42)                  1.1925         1.155901   
     49. B(H  46,C  40)                  1.0875         0.363374   
     50. B(H  47,O   1)                  2.8614         0.000481   
     51. B(H  47,C  43)                  1.0900         0.360076   
     52. A(C   8,O   0,H  32)          113.4351         0.368281   
     53. A(C  10,O   1,H  33)          109.7673         0.365132   
     54. A(C   3,C   2,C   8)          122.1534         0.403995   
     55. A(C   3,C   2,C   7)          119.7109         0.406698   
     56. A(C   7,C   2,C   8)          118.1319         0.427829   
     57. A(C   5,C   3,C   9)          117.6840         0.431015   
     58. A(C   2,C   3,C   9)          121.3213         0.406624   
     59. A(C   2,C   3,C   5)          120.9672         0.407031   
     60. A(C  10,C   4,C  11)          121.2955         0.397870   
     61. A(C   5,C   4,C  11)          120.7286         0.399946   
     62. A(C   5,C   4,C  10)          117.9487         0.430916   
     63. A(C   3,C   5,H  20)          118.7556         0.353181   
     64. A(C   3,C   5,C   4)          122.7286         0.432332   
     65. A(C   4,C   5,H  20)          118.4931         0.353859   
     66. A(C  12,C   6,C  13)          121.5191         0.399404   
     67. A(C   7,C   6,C  12)          120.8542         0.399816   
     68. A(C   7,C   6,C  13)          117.6234         0.433402   
     69. A(C   2,C   7,H  21)          118.0410         0.352857   
     70. A(C   2,C   7,C   6)          122.8821         0.432295   
     71. A(C   6,C   7,H  21)          119.0589         0.354059   
     72. A(O   0,C   8,C   2)          124.1149         0.427553   
     73. A(C   2,C   8,C  15)          119.4952         0.428967   
     74. A(O   0,C   8,C  15)          116.3890         0.431606   
     75. A(C   3,C   9,C  14)          120.8784         0.434072   
     76. A(C  14,C   9,H  22)          119.4675         0.355937   
     77. A(C   3,C   9,H  22)          119.6503         0.353235   
     78. A(O   1,C  10,C   4)          122.3917         0.424953   
     79. A(O   1,C  10,C  14)          117.1644         0.427957   
     80. A(C   4,C  10,C  14)          120.3989         0.431670   
     81. A(C   4,C  11,C  16)          113.8548         0.371966   
     82. A(H  23,C  11,H  24)          106.4452         0.289285   
     83. A(C  16,C  11,H  24)          108.8575         0.328146   
     84. A(C   4,C  11,H  24)          107.9731         0.326395   
     85. A(C  16,C  11,H  23)          109.1558         0.327732   
     86. A(C   4,C  11,H  23)          110.2760         0.325984   
     87. A(C   6,C  12,C  17)          113.4710         0.372339   
     88. A(H  25,C  12,H  26)          106.5194         0.289207   
     89. A(C   6,C  12,H  26)          108.2718         0.325778   
     90. A(C  17,C  12,H  25)          109.1088         0.328576   
     91. A(C   6,C  12,H  25)          110.2827         0.325866   
     92. A(C  17,C  12,H  26)          108.9421         0.328487   
     93. A(C   6,C  13,C  15)          120.9899         0.435115   
     94. A(C  15,C  13,H  27)          119.2625         0.355383   
     95. A(C   6,C  13,H  27)          119.7463         0.353713   
     96. A(C  10,C  14,H  28)          118.7688         0.354804   
     97. A(C   9,C  14,H  28)          120.8821         0.355904   
     98. A(C   9,C  14,C  10)          120.3486         0.436164   
     99. A(C  13,C  15,H  29)          121.0419         0.355795   
    100. A(C   8,C  15,H  29)          118.1031         0.354158   
    101. A(C   8,C  15,C  13)          120.8482         0.435162   
    102. A(C  11,C  16,C  18)          125.1039         0.419126   
    103. A(C  18,C  16,H  30)          119.2151         0.367477   
    104. A(C  11,C  16,H  30)          115.6791         0.329456   
    105. A(C  12,C  17,C  19)          125.2492         0.420701   
    106. A(C  19,C  17,H  31)          119.2159         0.367953   
    107. A(C  12,C  17,H  31)          115.5339         0.330009   
    108. A(H  34,C  18,H  35)          116.7801         0.292816   
    109. A(C  16,C  18,H  35)          121.6245         0.367819   
    110. A(C  16,C  18,H  34)          121.5822         0.368480   
    111. A(H  36,C  19,H  37)          116.7796         0.292851   
    112. A(C  17,C  19,H  37)          121.5722         0.368530   
    113. A(C  17,C  19,H  36)          121.6477         0.368982   
    114. A(O   0,H  32,O  45)          155.7507         0.185564   
    115. A(H  38,C  40,C  43)          113.0623         0.323877   
    116. A(O  44,C  40,H  46)          108.5868         0.335502   
    117. A(H  38,C  40,H  46)          110.0098         0.291049   
    118. A(C  43,C  40,H  46)          113.1731         0.324596   
    119. A(C  43,C  40,O  44)          103.1262         0.375552   
    120. A(H  38,C  40,O  44)          108.4918         0.334749   
    121. A(C  42,O  41,C  43)          109.7867         0.411055   
    122. A(O  44,C  42,O  45)          124.4455         0.483391   
    123. A(O  41,C  42,O  45)          124.7338         0.483984   
    124. A(O  41,C  42,O  44)          110.8187         0.435194   
    125. A(O  41,C  43,H  47)          108.6453         0.334720   
    126. A(C  40,C  43,H  47)          112.4720         0.324111   
    127. A(H  39,C  43,H  47)          110.2105         0.291179   
    128. A(C  40,C  43,O  41)          102.9793         0.375234   
    129. A(H  39,C  43,O  41)          108.4823         0.335141   
    130. A(H  39,C  43,C  40)          113.6425         0.324513   
    131. A(C  40,O  44,C  42)          109.9094         0.410930   
    132. A(H  32,O  45,C  42)          146.0316         0.224475   
    133. D(C   9,C   3,C   2,C   7)    124.1613         0.013191   
    134. D(C   5,C   3,C   2,C   7)    -53.8867         0.013191   
    135. D(C   9,C   3,C   2,C   8)    -55.1179         0.013191   
    136. D(C   5,C   3,C   2,C   8)    126.8341         0.013191   
    137. D(H  20,C   5,C   4,C  11)     -1.0514         0.026293   
    138. D(H  20,C   5,C   3,C   2)     -2.7617         0.025670   
    139. D(C   3,C   5,C   4,C  11)    177.1885         0.026293   
    140. D(C   3,C   5,C   4,C  10)     -0.9401         0.026293   
    141. D(H  20,C   5,C   3,C   9)    179.1214         0.025670   
    142. D(H  20,C   5,C   4,C  10)   -179.1801         0.026293   
    143. D(C   4,C   5,C   3,C   2)    179.0028         0.025670   
    144. D(C   4,C   5,C   3,C   9)      0.8859         0.025670   
    145. D(C   6,C   7,C   2,C   8)      1.6736         0.025421   
    146. D(H  21,C   7,C   2,C   3)      0.8072         0.025421   
    147. D(C   6,C   7,C   2,C   3)   -177.6343         0.025421   
    148. D(H  21,C   7,C   6,C  13)   -178.7349         0.026525   
    149. D(H  21,C   7,C   6,C  12)      0.6105         0.026525   
    150. D(C   2,C   7,C   6,C  12)    179.0369         0.026525   
    151. D(H  21,C   7,C   2,C   8)   -179.8848         0.025421   
    152. D(C   2,C   7,C   6,C  13)     -0.3085         0.026525   
    153. D(C  15,C   8,O   0,H  32)    158.4713         0.028907   
    154. D(C  15,C   8,C   2,C   7)     -1.9163         0.023479   
    155. D(O   0,C   8,C   2,C   7)    178.4525         0.023479   
    156. D(C  15,C   8,C   2,C   3)    177.3737         0.023479   
    157. D(O   0,C   8,C   2,C   3)     -2.2574         0.023479   
    158. D(C   2,C   8,O   0,H  32)    -21.8871         0.028907   
    159. D(H  22,C   9,C   3,C   5)    179.3729         0.025365   
    160. D(C  14,C   9,C   3,C   5)      0.0836         0.025365   
    161. D(H  22,C   9,C   3,C   2)      1.2630         0.025365   
    162. D(C  14,C   9,C   3,C   2)   -178.0263         0.025365   
    163. D(C   4,C  10,O   1,H  33)     25.2291         0.028158   
    164. D(C  14,C  10,C   4,C  11)   -178.0897         0.024699   
    165. D(C  14,C  10,C   4,C   5)      0.0278         0.024699   
    166. D(O   1,C  10,C   4,C  11)     -0.5992         0.024699   
    167. D(O   1,C  10,C   4,C   5)    177.5183         0.024699   
    168. D(C  14,C  10,O   1,H  33)   -157.2037         0.028158   
    169. D(H  24,C  11,C   4,C   5)      0.5984         0.011511   
    170. D(H  23,C  11,C   4,C  10)     62.7432         0.011511   
    171. D(H  23,C  11,C   4,C   5)   -115.3223         0.011511   
    172. D(C  16,C  11,C   4,C  10)    -60.3398         0.011511   
    173. D(C  16,C  11,C   4,C   5)    121.5948         0.011511   
    174. D(H  26,C  12,C   6,C   7)   -175.6195         0.011381   
    175. D(H  25,C  12,C   6,C  13)    119.8839         0.011381   
    176. D(H  25,C  12,C   6,C   7)    -59.4357         0.011381   
    177. D(C  17,C  12,C   6,C  13)   -117.3675         0.011381   
    178. D(C  17,C  12,C   6,C   7)     63.3129         0.011381   
    179. D(H  27,C  13,C   6,C  12)      0.2535         0.026197   
    180. D(H  27,C  13,C   6,C   7)    179.5942         0.026197   
    181. D(C  15,C  13,C   6,C  12)    179.8364         0.026197   
    182. D(C  15,C  13,C   6,C   7)     -0.8229         0.026197   
    183. D(H  28,C  14,C  10,C   4)   -178.8591         0.026841   
    184. D(H  28,C  14,C  10,O   1)      3.5226         0.026841   
    185. D(C   9,C  14,C  10,C   4)      0.9063         0.026841   
    186. D(C   9,C  14,C  10,O   1)   -176.7120         0.026841   
    187. D(H  28,C  14,C   9,H  22)     -0.4953         0.027904   
    188. D(H  28,C  14,C   9,C   3)    178.7952         0.027904   
    189. D(C  10,C  14,C   9,H  22)    179.7443         0.027904   
    190. D(C  10,C  14,C   9,C   3)     -0.9652         0.027904   
    191. D(C   8,C  15,C  13,C   6)      0.5458         0.027790   
    192. D(H  29,C  15,C   8,C   2)    179.9251         0.026230   
    193. D(H  29,C  15,C   8,O   0)     -0.4158         0.026230   
    194. D(C  13,C  15,C   8,C   2)      0.8628         0.026230   
    195. D(C  13,C  15,C   8,O   0)   -179.4781         0.026230   
    196. D(H  29,C  15,C  13,H  27)      1.0961         0.027790   
    197. D(H  29,C  15,C  13,C   6)   -178.4888         0.027790   
    198. D(C   8,C  15,C  13,H  27)   -179.8693         0.027790   
    199. D(H  30,C  16,C  11,H  23)   -177.8645         0.012248   
    200. D(H  30,C  16,C  11,C   4)    -54.1724         0.012248   
    201. D(C  18,C  16,C  11,H  24)   -114.1688         0.012248   
    202. D(C  18,C  16,C  11,H  23)      1.6377         0.012248   
    203. D(C  18,C  16,C  11,C   4)    125.3298         0.012248   
    204. D(H  31,C  17,C  12,H  25)   -179.8179         0.012530   
    205. D(H  31,C  17,C  12,C   6)     56.7881         0.012530   
    206. D(C  19,C  17,C  12,H  26)    116.4871         0.012530   
    207. D(C  19,C  17,C  12,H  25)      0.5712         0.012530   
    208. D(C  19,C  17,C  12,C   6)   -122.8227         0.012530   
    209. D(H  35,C  18,C  16,H  30)   -179.4209         0.043436   
    210. D(H  35,C  18,C  16,C  11)      1.0931         0.043436   
    211. D(H  34,C  18,C  16,H  30)     -0.7788         0.043436   
    212. D(H  34,C  18,C  16,C  11)    179.7352         0.043436   
    213. D(H  37,C  19,C  17,H  31)   -179.6715         0.044328   
    214. D(H  37,C  19,C  17,C  12)     -0.0738         0.044328   
    215. D(H  36,C  19,C  17,H  31)      0.6137         0.044328   
    216. D(H  36,C  19,C  17,C  12)   -179.7886         0.044328   
    217. D(O  45,H  32,O   0,C   8)   -161.8199         0.274499   
    218. D(O  45,C  42,O  41,C  43)   -172.4227         0.031210   
    219. D(O  44,C  42,O  41,C  43)      8.0742         0.031210   
    220. D(H  47,C  43,O  41,C  42)    103.2481         0.017344   
    221. D(H  39,C  43,O  41,C  42)   -136.9358         0.017344   
    222. D(O  41,C  43,C  40,H  46)    134.9442         0.011063   
    223. D(O  41,C  43,C  40,O  44)     17.8258         0.011063   
    224. D(O  41,C  43,C  40,H  38)    -99.1266         0.011063   
    225. D(H  39,C  43,C  40,H  46)   -107.9245         0.011063   
    226. D(C  40,C  43,O  41,C  42)    -16.2077         0.017344   
    227. D(H  39,C  43,C  40,O  44)    134.9571         0.011063   
    228. D(H  39,C  43,C  40,H  38)     18.0048         0.011063   
    229. D(C  40,O  44,C  42,O  45)   -174.8901         0.030765   
    230. D(C  40,O  44,C  42,O  41)      4.6147         0.030765   
    231. D(C  42,O  44,C  40,H  46)   -134.5152         0.017518   
    232. D(C  42,O  44,C  40,C  43)    -14.2024         0.017518   
    233. D(C  42,O  44,C  40,H  38)    105.9385         0.017518   
    234. D(H  32,O  45,C  42,O  44)   -114.7442         0.114769   
    235. D(H  32,O  45,C  42,O  41)     65.8190         0.114769   
    236. D(C  42,O  45,H  32,O   0)   -135.2756         0.001556   
    -----------------------------------------------------------------

Number of atoms                         .... 48
Number of degrees of freedom            .... 236


         *************************************************************
         *                GEOMETRY OPTIMIZATION CYCLE   1            *
         *************************************************************
---------------------------------
CARTESIAN COORDINATES (ANGSTROEM)
---------------------------------
  O      1.103497    1.439134    2.399821
  O     -3.839448   -2.509595    1.803299
  C      1.052057   -0.005708    0.428463
  C     -0.238030   -0.651835    0.782514
  C     -2.523883   -1.279608    0.167541
  C     -1.305297   -0.666879   -0.118264
  C      2.946808    0.151557   -1.118128
  C      1.712662   -0.375570   -0.746698
  C      1.652347    0.968581    1.249106
  C     -0.413970   -1.299710    2.009007
  C     -2.662603   -1.919826    1.406684
  C     -3.673661   -1.214315   -0.818098
  C      3.633321   -0.299107   -2.394168
  C      3.529295    1.092556   -0.270417
  C     -1.607881   -1.934423    2.313354
  C      2.890694    1.498994    0.891199
  C     -4.166521   -2.564857   -1.269920
  C      2.861416    0.036637   -3.640274
  C     -5.426068   -2.985762   -1.189668
  C      2.457922   -0.840875   -4.551626
  H     -1.192864   -0.157461   -1.068697
  H      1.248156   -1.124570   -1.378499
  H      0.396030   -1.316453    2.726796
  H     -4.510085   -0.651426   -0.389047
  H     -3.336998   -0.650251   -1.692434
  H      3.816485   -1.377963   -2.365860
  H      4.615672    0.182310   -2.443987
  H      4.493115    1.520526   -0.522968
  H     -1.737414   -2.452571    3.254985
  H      3.330942    2.247431    1.537642
  H     -3.410595   -3.228447   -1.682084
  H      2.624215    1.089307   -3.775400
  H      0.141640    1.315127    2.447827
  H     -4.357252   -2.763616    1.024881
  H     -5.718608   -3.968831   -1.536471
  H     -6.213720   -2.352430   -0.793511
  H      1.906626   -0.533340   -5.431696
  H      2.668871   -1.900547   -4.452446
  H     -5.570090    1.461308    4.074429
  H     -4.589079   -0.087660    5.646530
  C     -4.968628    0.676479    3.612865
  O     -2.882992    0.400051    4.600144
  C     -2.740346    1.158140    3.493098
  C     -4.202673   -0.170291    4.632862
  O     -3.920423    1.295122    2.849568
  O     -1.715062    1.649927    3.133828
  H     -5.583684    0.083419    2.940019
  H     -4.136923   -1.217932    4.339157

----------------------------
CARTESIAN COORDINATES (A.U.)
----------------------------
  NO LB      ZA    FRAG     MASS         X           Y           Z
   0 O     8.0000    0    15.999    2.085307    2.719570    4.535004
   1 O     8.0000    0    15.999   -7.255505   -4.742447    3.407741
   2 C     6.0000    0    12.011    1.988100   -0.010787    0.809678
   3 C     6.0000    0    12.011   -0.449811   -1.231789    1.478737
   4 C     6.0000    0    12.011   -4.769447   -2.418109    0.316607
   5 C     6.0000    0    12.011   -2.466653   -1.260220   -0.223487
   6 C     6.0000    0    12.011    5.568661    0.286401   -2.112955
   7 C     6.0000    0    12.011    3.236462   -0.709724   -1.411054
   8 C     6.0000    0    12.011    3.122484    1.830353    2.360469
   9 C     6.0000    0    12.011   -0.782289   -2.456097    3.796473
  10 C     6.0000    0    12.011   -5.031590   -3.627946    2.658247
  11 C     6.0000    0    12.011   -6.942212   -2.294723   -1.545981
  12 C     6.0000    0    12.011    6.865981   -0.565230   -4.524322
  13 C     6.0000    0    12.011    6.669401    2.064632   -0.511014
  14 C     6.0000    0    12.011   -3.038454   -3.655530    4.371605
  15 C     6.0000    0    12.011    5.462620    2.832688    1.684123
  16 C     6.0000    0    12.011   -7.873584   -4.846877   -2.399802
  17 C     6.0000    0    12.011    5.407293    0.069233   -6.879121
  18 C     6.0000    0    12.011  -10.253783   -5.642272   -2.248147
  19 C     6.0000    0    12.011    4.644799   -1.589023   -8.601327
  20 H     1.0000    0     1.008   -2.254186   -0.297558   -2.019544
  21 H     1.0000    0     1.008    2.358672   -2.125129   -2.604986
  22 H     1.0000    0     1.008    0.748389   -2.487735    5.152898
  23 H     1.0000    0     1.008   -8.522826   -1.231016   -0.735192
  24 H     1.0000    0     1.008   -6.306011   -1.228797   -3.198237
  25 H     1.0000    0     1.008    7.212112   -2.603973   -4.470827
  26 H     1.0000    0     1.008    8.722356    0.344516   -4.618466
  27 H     1.0000    0     1.008    8.490756    2.873377   -0.988267
  28 H     1.0000    0     1.008   -3.283237   -4.634688    6.151031
  29 H     1.0000    0     1.008    6.294569    4.247029    2.905723
  30 H     1.0000    0     1.008   -6.445090   -6.100880   -3.178678
  31 H     1.0000    0     1.008    4.959047    2.058492   -7.134472
  32 H     1.0000    0     1.008    0.267661    2.485229    4.625722
  33 H     1.0000    0     1.008   -8.234014   -5.222477    1.936745
  34 H     1.0000    0     1.008  -10.806603   -7.500003   -2.903509
  35 H     1.0000    0     1.008  -11.742229   -4.445448   -1.499519
  36 H     1.0000    0     1.008    3.603001   -1.007867  -10.264418
  37 H     1.0000    0     1.008    5.043435   -3.591513   -8.413903
  38 H     1.0000    0     1.008  -10.525945    2.761472    7.699554
  39 H     1.0000    0     1.008   -8.672103   -0.165654   10.670395
  40 C     6.0000    0    12.011   -9.389346    1.278360    6.827325
  41 O     8.0000    0    15.999   -5.448065    0.755986    8.693012
  42 C     6.0000    0    12.011   -5.178504    2.188568    6.600998
  43 C     6.0000    0    12.011   -7.941902   -0.321802    8.754840
  44 O     8.0000    0    15.999   -7.408526    2.447427    5.384904
  45 O     8.0000    0    15.999   -3.240998    3.117910    5.922077
  46 H     1.0000    0     1.008  -10.551634    0.157640    5.555830
  47 H     1.0000    0     1.008   -7.817652   -2.301559    8.199818

--------------------------------
INTERNAL COORDINATES (ANGSTROEM)
--------------------------------
 O      0   0   0     0.000000000000     0.00000000     0.00000000
 O      1   0   0     6.354604633762     0.00000000     0.00000000
 C      1   2   0     2.444681453539    62.65683405     0.00000000
 C      3   1   2     1.485650034903    94.76894634     0.55454078
 C      2   1   3     2.432957196527    47.80620968   325.21413221
 C      5   2   1     1.393583143513   146.40743983    23.93467399
 C      3   1   2     2.450868639473   117.04368304   181.63125778
 C      7   3   1     1.392458372313    28.62005393   181.86294815
 C      1   2   3     1.358970622671    91.11752879   358.82103638
 C      4   3   1     1.398206828160   121.32128195   303.83980997
 C      2   1   3     1.374806861539    25.13160873   357.62358330
 C      5   2   1     1.515828809460    92.79710925   207.38625433
 C      7   3   1     1.517457130625   149.46765898   180.23532302
 C      7   3   1     1.394053203079    89.00369679     1.58961403
 C     10   4   3     1.385969158479   120.87841641   181.97373276
 C     14   7   3     1.386490247968   120.98993166   359.02935801
 C     12   5   2     1.506989635401   113.85480854   299.37395535
 C     13   7   3     1.503775060422   113.47099576    64.22100547
 C     17  12   5     1.330436265314   125.10391433   125.32978318
 C     18  13   7     1.327929878809   125.24915382   237.17725666
 H      6   5   2     1.084190689100   118.49306387   182.96001813
 H      8   7   3     1.084407623692   119.05892842   181.57358487
 H     10   4   3     1.082405695086   119.65026787     1.26298381
 H     12   5   2     1.095689970391   110.27601175    62.45690831
 H     12   5   2     1.093605886702   107.97305247   178.37757057
 H     13   7   3     1.094660335908   110.28266479   301.47239594
 H     13   7   3     1.095106562121   108.27184108   185.28854580
 H     14   7   3     1.084383693745   119.74631814   179.44643840
 H     15  10   4     1.082555820787   120.88211196   178.79521234
 H     16  14   7     1.082527148709   121.04192148   181.51124101
 H     17  12   5     1.087039547235   115.67913129   305.82755834
 H     18  13   7     1.087491616624   115.53387676    56.78812821
 H      1   2   3     0.971004915734    32.30215038   134.34358283
 H      2   1   3     0.968804848460   130.85146209   319.86561617
 H     19  17  12     1.082716749025   121.58224627   179.73517964
 H     19  17  12     1.085562061160   121.62453459     1.09306166
 H     20  18  13     1.083063617896   121.64769137   180.21137193
 H     20  18  13     1.085007426449   121.57215162   359.92621143
 H      2   1   3     4.890932388580    74.16575778   212.40225928
 H     39   2   1     2.415198997452    68.76661326   274.94797027
 C     39   2   1     1.091216815224    12.74038024   348.97370108
 O     40  39   2     2.059980944400    81.60022152    65.00579939
 C     42  40  39     1.349295712614   129.59348865   354.14662051
 C     40  39   2     1.087961732395    65.57516610    24.91009898
 O     43  42  40     1.351101197153   110.81871102   341.72444273
 O     43  42  40     1.192533509637   124.73383110   161.22758513
 H     41  39  45     1.087536583734   110.00977390   241.34894601
 H     44  40  39     1.090018028884   110.21051259   224.60148816

---------------------------
INTERNAL COORDINATES (A.U.)
---------------------------
 O      0   0   0     0.000000000000     0.00000000     0.00000000
 O      1   0   0    12.008462447158     0.00000000     0.00000000
 C      1   2   0     4.619778431864    62.65683405     0.00000000
 C      3   1   2     2.807471696816    94.76894634     0.55454078
 C      2   1   3     4.597622796989    47.80620968   325.21413221
 C      5   2   1     2.633490486089   146.40743983    23.93467399
 C      3   1   2     4.631470518820   117.04368304   181.63125778
 C      7   3   1     2.631364976557    28.62005393   181.86294815
 C      1   2   3     2.568082300892    91.11752879   358.82103638
 C      4   3   1     2.642227983802   121.32128195   303.83980997
 C      2   1   3     2.598008455344    25.13160873   357.62358330
 C      5   2   1     2.864501315788    92.79710925   207.38625433
 C      7   3   1     2.867578396848   149.46765898   180.23532302
 C      7   3   1     2.634378769936    89.00369679     1.58961403
 C     10   4   3     2.619102139586   120.87841641   181.97373276
 C     14   7   3     2.620086856013   120.98993166   359.02935801
 C     12   5   2     2.847797697566   113.85480854   299.37395535
 C     13   7   3     2.841723031218   113.47099576    64.22100547
 C     17  12   5     2.514160180080   125.10391433   125.32978318
 C     18  13   7     2.509423795999   125.24915382   237.17725666
 H      6   5   2     2.048823479347   118.49306387   182.96001813
 H      8   7   3     2.049233426314   119.05892842   181.57358487
 H     10   4   3     2.045450329510   119.65026787     1.26298381
 H     12   5   2     2.070553971723   110.27601175    62.45690831
 H     12   5   2     2.066615624310   107.97305247   178.37757057
 H     13   7   3     2.068608244531   110.28266479   301.47239594
 H     13   7   3     2.069451489869   108.27184108   185.28854580
 H     14   7   3     2.049188205269   119.74631814   179.44643840
 H     15  10   4     2.045734025969   120.88211196   178.79521234
 H     16  14   7     2.045679843595   121.04192148   181.51124101
 H     17  12   5     2.054207041015   115.67913129   305.82755834
 H     18  13   7     2.055061328355   115.53387676    56.78812821
 H      1   2   3     1.834933365428    32.30215038   134.34358283
 H      2   1   3     1.830775840805   130.85146209   319.86561617
 H     19  17  12     2.046038136268   121.58224627   179.73517964
 H     19  17  12     2.051414996968   121.62453459     1.09306166
 H     20  18  13     2.046693623438   121.64769137   180.21137193
 H     20  18  13     2.050366889260   121.57215162   359.92621143
 H      2   1   3     9.242522753941    74.16575778   212.40225928
 H     39   2   1     4.564064664105    68.76661326   274.94797027
 C     39   2   1     2.062100933503    12.74038024   348.97370108
 O     40  39   2     3.892799826013    81.60022152    65.00579939
 C     42  40  39     2.549799370514   129.59348865   354.14662051
 C     40  39   2     2.055949718412    65.57516610    24.91009898
 O     43  42  40     2.553211241832   110.81871102   341.72444273
 O     43  42  40     2.253561738738   124.73383110   161.22758513
 H     41  39  45     2.055146303878   110.00977390   241.34894601
 H     44  40  39     2.059835555628   110.21051259   224.60148816

---------------------
BASIS SET INFORMATION
---------------------
There are 3 groups of distinct atoms

 Group   1 Type O   : 11s6p2d1f contracted to 5s3p2d1f pattern {62111/411/11/1}
 Group   2 Type C   : 11s6p2d1f contracted to 5s3p2d1f pattern {62111/411/11/1}
 Group   3 Type H   : 5s1p contracted to 3s1p pattern {311/1}

Atom   0O    basis set group =>   1
Atom   1O    basis set group =>   1
Atom   2C    basis set group =>   2
Atom   3C    basis set group =>   2
Atom   4C    basis set group =>   2
Atom   5C    basis set group =>   2
Atom   6C    basis set group =>   2
Atom   7C    basis set group =>   2
Atom   8C    basis set group =>   2
Atom   9C    basis set group =>   2
Atom  10C    basis set group =>   2
Atom  11C    basis set group =>   2
Atom  12C    basis set group =>   2
Atom  13C    basis set group =>   2
Atom  14C    basis set group =>   2
Atom  15C    basis set group =>   2
Atom  16C    basis set group =>   2
Atom  17C    basis set group =>   2
Atom  18C    basis set group =>   2
Atom  19C    basis set group =>   2
Atom  20H    basis set group =>   3
Atom  21H    basis set group =>   3
Atom  22H    basis set group =>   3
Atom  23H    basis set group =>   3
Atom  24H    basis set group =>   3
Atom  25H    basis set group =>   3
Atom  26H    basis set group =>   3
Atom  27H    basis set group =>   3
Atom  28H    basis set group =>   3
Atom  29H    basis set group =>   3
Atom  30H    basis set group =>   3
Atom  31H    basis set group =>   3
Atom  32H    basis set group =>   3
Atom  33H    basis set group =>   3
Atom  34H    basis set group =>   3
Atom  35H    basis set group =>   3
Atom  36H    basis set group =>   3
Atom  37H    basis set group =>   3
Atom  38H    basis set group =>   3
Atom  39H    basis set group =>   3
Atom  40C    basis set group =>   2
Atom  41O    basis set group =>   1
Atom  42C    basis set group =>   2
Atom  43C    basis set group =>   2
Atom  44O    basis set group =>   1
Atom  45O    basis set group =>   1
Atom  46H    basis set group =>   3
Atom  47H    basis set group =>   3
---------------------------------
AUXILIARY/J BASIS SET INFORMATION
---------------------------------
There are 3 groups of distinct atoms

 Group   1 Type O   : 12s5p4d2f1g contracted to 6s4p3d1f1g pattern {711111/2111/211/2/1}
 Group   2 Type C   : 12s5p4d2f1g contracted to 6s4p3d1f1g pattern {711111/2111/211/2/1}
 Group   3 Type H   : 5s2p1d contracted to 3s1p1d pattern {311/2/1}

Atom   0O    basis set group =>   1
Atom   1O    basis set group =>   1
Atom   2C    basis set group =>   2
Atom   3C    basis set group =>   2
Atom   4C    basis set group =>   2
Atom   5C    basis set group =>   2
Atom   6C    basis set group =>   2
Atom   7C    basis set group =>   2
Atom   8C    basis set group =>   2
Atom   9C    basis set group =>   2
Atom  10C    basis set group =>   2
Atom  11C    basis set group =>   2
Atom  12C    basis set group =>   2
Atom  13C    basis set group =>   2
Atom  14C    basis set group =>   2
Atom  15C    basis set group =>   2
Atom  16C    basis set group =>   2
Atom  17C    basis set group =>   2
Atom  18C    basis set group =>   2
Atom  19C    basis set group =>   2
Atom  20H    basis set group =>   3
Atom  21H    basis set group =>   3
Atom  22H    basis set group =>   3
Atom  23H    basis set group =>   3
Atom  24H    basis set group =>   3
Atom  25H    basis set group =>   3
Atom  26H    basis set group =>   3
Atom  27H    basis set group =>   3
Atom  28H    basis set group =>   3
Atom  29H    basis set group =>   3
Atom  30H    basis set group =>   3
Atom  31H    basis set group =>   3
Atom  32H    basis set group =>   3
Atom  33H    basis set group =>   3
Atom  34H    basis set group =>   3
Atom  35H    basis set group =>   3
Atom  36H    basis set group =>   3
Atom  37H    basis set group =>   3
Atom  38H    basis set group =>   3
Atom  39H    basis set group =>   3
Atom  40C    basis set group =>   2
Atom  41O    basis set group =>   1
Atom  42C    basis set group =>   2
Atom  43C    basis set group =>   2
Atom  44O    basis set group =>   1
Atom  45O    basis set group =>   1
Atom  46H    basis set group =>   3
Atom  47H    basis set group =>   3
--------------------------------------------------------------------------
WARNING: There was an error initializing an OpenFabrics device.

  Local host:   ga01
  Local device: mlx5_0
--------------------------------------------------------------------------


           ************************************************************
           *        Program running with 25 parallel MPI-processes    *
           *              working on a common directory               *
           ************************************************************
------------------------------------------------------------------------------
                             ORCA STARTUP CALCULATIONS
                           -- RI-GTO INTEGRALS CHOSEN --
------------------------------------------------------------------------------
------------------------------------------------------------------------------
                   ___                                                        
                  /   \      - P O W E R E D   B Y -                         
                 /     \                                                     
                 |  |  |   _    _      __       _____    __    __             
                 |  |  |  | |  | |    /  \     |  _  \  |  |  /  |          
                  \  \/   | |  | |   /    \    | | | |  |  | /  /          
                 / \  \   | |__| |  /  /\  \   | |_| |  |  |/  /          
                |  |  |   |  __  | /  /__\  \  |    /   |      \           
                |  |  |   | |  | | |   __   |  |    \   |  |\   \          
                \     /   | |  | | |  |  |  |  | |\  \  |  | \   \       
                 \___/    |_|  |_| |__|  |__|  |_| \__\ |__|  \__/        
                                                                              
                      - O R C A' S   B I G   F R I E N D -                    
                                      &                                       
                       - I N T E G R A L  F E E D E R -                       
                                                                              
 v1 FN, 2020, v2 2021, v3 2022-2024                                           
------------------------------------------------------------------------------


----------------------
SHARK INTEGRAL PACKAGE
----------------------

Number of atoms                             ...     48
Number of basis functions                   ...    938
Number of shells                            ...    374
Maximum angular momentum                    ...      3
Integral batch strategy                     ... SHARK/LIBINT Hybrid
RI-J (if used) integral strategy            ... SPLIT-RIJ (Revised 2003 algorithm where possible)
Printlevel                                  ...      1
Contraction scheme used                     ... SEGMENTED contraction
Prescreening option                         ... SCHWARTZ
   Thresh                                   ... 2.500e-11
   Tcut                                     ... 2.500e-12
   Tpresel                                  ... 2.500e-12 
Coulomb Range Separation                    ... NOT USED
Exchange Range Separation                   ... NOT USED
Multipole approximations                    ... NOT USED
Finite Nucleus Model                        ... NOT USED
CABS basis                                  ... NOT available
Auxiliary Coulomb fitting basis             ... AVAILABLE
   # of basis functions in Aux-J            ...   1516
   # of shells in Aux-J                     ...    500
   Maximum angular momentum in Aux-J        ...      4
Auxiliary J/K fitting basis                 ... NOT available
Auxiliary Correlation fitting basis         ... NOT available
Auxiliary 'external' fitting basis          ... NOT available

Checking pre-screening integrals            ... done (  0.0 sec) Dimension = 374
Check shell pair data                       ... done (  0.0 sec)
Shell pair information
Shell pair cut-off parameter TPreSel        ...   2.5e-12
Total number of shell pairs                 ...     70125
Shell pairs after pre-screening             ...     44172
Total number of primitive shell pairs       ...    213516
Primitive shell pairs kept                  ...     87436
          la=0 lb=0:  11749 shell pairs
          la=1 lb=0:  12974 shell pairs
          la=1 lb=1:   3611 shell pairs
          la=2 lb=0:   6132 shell pairs
          la=2 lb=1:   3458 shell pairs
          la=2 lb=2:    843 shell pairs
          la=3 lb=0:   2832 shell pairs
          la=3 lb=1:   1639 shell pairs
          la=3 lb=2:    745 shell pairs
          la=3 lb=3:    189 shell pairs

Calculating one electron integrals          ... done (  0.1 sec)
Calculating RI/J V-Matrix + Cholesky decomp.... done (  0.1 sec)
Calculating Nuclear repulsion               ... done (  0.0 sec) ENN=   2274.472876596114 Eh

Diagonalization of the overlap matrix:
Smallest eigenvalue                        ... 5.699e-06
Time for diagonalization                   ...    0.133 sec
Threshold for overlap eigenvalues          ... 1.000e-07
Number of eigenvalues below threshold      ... 0
Time for construction of square roots      ...    0.068 sec
Total time needed                          ...    0.209 sec

-------------------
DFT GRID GENERATION
-------------------

General Integration Accuracy     IntAcc      ... 4.388
Radial Grid Type                 RadialGrid  ... OptM3 with GC (2021)
Angular Grid (max. ang.)         AngularGrid ... 4 (Lebedev-302)
Angular grid pruning method      GridPruning ... 4 (adaptive)
Weight generation scheme         WeightScheme... mBecke (2022)
Basis function cutoff            BFCut       ... 1.0000e-11
Integration weight cutoff        WCut        ... 1.0000e-14
Partially contracted basis set               ... off
Rotationally invariant grid construction     ... off
Angular grids for H and He will be reduced by one unit

Total number of grid points                  ...   225592
Total number of batches                      ...     3550
Average number of points per batch           ...       63
Average number of grid points per atom       ...     4700

--------------------
COSX GRID GENERATION
--------------------

GRIDX 1
-------
General Integration Accuracy     IntAcc      ... 3.816
Radial Grid Type                 RadialGrid  ... OptM3 with GC (2021)
Angular Grid (max. ang.)         AngularGrid ... 1 (Lebedev-50)
Angular grid pruning method      GridPruning ... 4 (adaptive)
Weight generation scheme         WeightScheme... mBecke (2022)
Basis function cutoff            BFCut       ... 1.0000e-11
Integration weight cutoff        WCut        ... 1.0000e-14
Partially contracted basis set               ... on
Rotationally invariant grid construction     ... off
Angular grids for H and He will be reduced by one unit

Total number of grid points                  ...    28611
Total number of batches                      ...      253
Average number of points per batch           ...      113
Average number of grid points per atom       ...      596
UseSFitting                                  ... on

GRIDX 2
-------
General Integration Accuracy     IntAcc      ... 4.020
Radial Grid Type                 RadialGrid  ... OptM3 with GC (2021)
Angular Grid (max. ang.)         AngularGrid ... 2 (Lebedev-110)
Angular grid pruning method      GridPruning ... 4 (adaptive)
Weight generation scheme         WeightScheme... mBecke (2022)
Basis function cutoff            BFCut       ... 1.0000e-11
Integration weight cutoff        WCut        ... 1.0000e-14
Partially contracted basis set               ... on
Rotationally invariant grid construction     ... off
Angular grids for H and He will be reduced by one unit

Total number of grid points                  ...    61758
Total number of batches                      ...      511
Average number of points per batch           ...      120
Average number of grid points per atom       ...     1287
UseSFitting                                  ... on

GRIDX 3
-------
General Integration Accuracy     IntAcc      ... 4.338
Radial Grid Type                 RadialGrid  ... OptM3 with GC (2021)
Angular Grid (max. ang.)         AngularGrid ... 3 (Lebedev-194)
Angular grid pruning method      GridPruning ... 4 (adaptive)
Weight generation scheme         WeightScheme... mBecke (2022)
Basis function cutoff            BFCut       ... 1.0000e-11
Integration weight cutoff        WCut        ... 1.0000e-14
Partially contracted basis set               ... on
Rotationally invariant grid construction     ... off
Angular grids for H and He will be reduced by one unit

Total number of grid points                  ...   134881
Total number of batches                      ...     1078
Average number of points per batch           ...      125
Average number of grid points per atom       ...     2810
UseSFitting                                  ... on
Initializing property integral containers    ... done (  0.0 sec)

SHARK setup successfully completed in   3.3 seconds

Maximum memory used throughout the entire STARTUP-calculation: 96.9 MB
[ga01:945912] 24 more processes have sent help message help-mpi-btl-openib.txt / error in device init
[ga01:945912] Set MCA parameter "orte_base_help_aggregate" to 0 to see all help / error messages
--------------------------------------------------------------------------
WARNING: There was an error initializing an OpenFabrics device.

  Local host:   ga01
  Local device: mlx5_0
--------------------------------------------------------------------------


           ************************************************************
           *        Program running with 25 parallel MPI-processes    *
           *              working on a common directory               *
           ************************************************************
-------------------------------------------------------------------------------
                                 ORCA GUESS
                   Start orbitals & Density for SCF / CASSCF
-------------------------------------------------------------------------------

------------
SCF SETTINGS
------------
Hamiltonian:
 Density Functional     Method          .... DFT(GTOs)
 Exchange Functional    Exchange        .... B88
   X-Alpha parameter    XAlpha          ....  0.666667
   Becke's b parameter  XBeta           ....  0.004200
 Correlation Functional Correlation     .... LYP
 LDA part of GGA corr.  LDAOpt          .... VWN-5
 Gradients option       PostSCFGGA      .... off
 Hybrid DFT is turned on
   Fraction HF Exchange ScalHFX         ....  0.200000
   Scaling of DF-GGA-X  ScalDFX         ....  0.720000
   Scaling of DF-GGA-C  ScalDFC         ....  0.810000
   Scaling of DF-LDA-C  ScalLDAC        ....  1.000000
   Perturbative correction              ....  0.000000
   NL short-range parameter             ....  4.800000
 RI-approximation to the Coulomb term is turned on
   Number of AuxJ basis functions       .... 1516
   RIJ-COSX (HFX calculated with COS-X)).... on


General Settings:
 Integral files         IntName         .... honokiol2-opt_EC_closer
 Hartree-Fock type      HFTyp           .... RHF
 Total Charge           Charge          ....    0
 Multiplicity           Mult            ....    1
 Number of Electrons    NEL             ....  188
 Basis Dimension        Dim             ....  938
 Nuclear Repulsion      ENuc            ....   2274.4728765961 Eh

Convergence Acceleration:
 AO-DIIS                CNVDIIS         .... on
   Start iteration      DIISMaxIt       ....    12
   Startup error        DIISStart       ....  0.200000
   # of expansion vecs  DIISMaxEq       ....     5
   Bias factor          DIISBfac        ....   1.050
   Max. coefficient     DIISMaxC        ....  10.000
 MO-DIIS                CNVKDIIS        .... off
 Trust-Rad. Augm. Hess. CNVTRAH         .... auto
   Auto Start mean grad. ratio tolernc. ....  1.125000
   Auto Start start iteration           ....    50
   Auto Start num. interpolation iter.  ....    10
   Max. Number of Micro iterations      ....    24
   Max. Number of Macro iterations      .... Maxiter - #DIIS iter
   Number of Davidson start vectors     ....     2
   Converg. threshold    (grad. norm)   ....   1.000e-05
   Grad. Scal. Fac. for Micro threshold ....   0.100
   Minimum threshold for Micro iter.    ....   1.000e-02
   NR start threshold (gradient norm)   ....   1.000e-04
   Initial trust radius                 ....   0.400
   Minimum AH scaling param. (alpha)    ....   1.000
   Maximum AH scaling param. (alpha)    .... 1000.000
   Quad. conv. algorithm                .... NR
   White noise on init. David. guess    .... on
   Maximum white noise                  ....   0.010
   Pseudo random numbers                .... off
   Inactive MOs                         .... canonical
   Orbital update algorithm             .... Taylor
   Preconditioner                       .... Diag
   Full preconditioner red. dimension   ....   250
 SOSCF                  CNVSOSCF        .... on
   Start iteration      SOSCFMaxIt      ....   150
   Startup grad/error   SOSCFStart      ....  0.003300
   Hessian update       SOSCFHessUp     .... L-BFGS
 Level Shifting         CNVShift        .... on
   Level shift para.    LevelShift      ....    0.2500
   Turn off err/grad.   ShiftErr        ....    0.0010
 Zerner damping         CNVZerner       .... off
 Static damping         CNVDamp         .... on
   Fraction old density DampFac         ....    0.7000
   Max. Damping (<1)    DampMax         ....    0.9800
   Min. Damping (>=0)   DampMin         ....    0.0000
   Turn off err/grad.   DampErr         ....    0.1000

SCF Procedure:
 Maximum # iterations   MaxIter         ....   125
 SCF integral mode      SCFMode         .... Direct
   Integral package                     .... SHARK and LIBINT hybrid scheme
 Reset frequency        DirectResetFreq ....    20
 Integral Threshold     Thresh          ....  2.500e-11 Eh
 Primitive CutOff       TCut            ....  2.500e-12 Eh

Convergence Tolerance:
 Convergence Check Mode ConvCheckMode   .... Total+1el-Energy
 Convergence forced     ConvForced      .... 0
 Energy Change          TolE            ....  1.000e-08 Eh
 1-El. energy change                    ....  1.000e-05 Eh
 Orbital Gradient       TolG            ....  1.000e-05
 Orbital Rotation angle TolX            ....  1.000e-05
 DIIS Error             TolErr          ....  5.000e-07

------------------------------
INITIAL GUESS: MODEL POTENTIAL
------------------------------
Loading Hartree-Fock densities                     ... done
Calculating cut-offs                               ... done
Initializing the effective Hamiltonian             ... done
Setting up the integral package (SHARK)            ... done
Starting the Coulomb interaction                   ... done (   0.2 sec)
Making the grid                                    ... done (   0.3 sec)
Mapping shells                                     ... done
Starting the XC term evaluation                    ... done (   0.1 sec)
  promolecular density results
     # of electrons  =    187.983830328
     EX              =   -155.548303041
     EC              =     -6.400712804
     EX+EC           =   -161.949015845
Transforming the Hamiltonian                       ... done (   0.1 sec)
Diagonalizing the Hamiltonian                      ... done (   0.1 sec)
Back transforming the eigenvectors                 ... done (   0.0 sec)
Now organizing SCF variables                       ... done
                      ------------------
                      INITIAL GUESS DONE (   0.9 sec)
                      ------------------
             **** ENERGY FILE WAS UPDATED (honokiol2-opt_EC_closer.en.tmp) ****
Finished Guess after   1.7 sec
Maximum memory used throughout the entire GUESS-calculation: 79.4 MB
[ga01:946020] 24 more processes have sent help message help-mpi-btl-openib.txt / error in device init
[ga01:946020] Set MCA parameter "orte_base_help_aggregate" to 0 to see all help / error messages
--------------------------------------------------------------------------
WARNING: There was an error initializing an OpenFabrics device.

  Local host:   ga01
  Local device: mlx5_0
--------------------------------------------------------------------------


           ************************************************************
           *        Program running with 25 parallel MPI-processes    *
           *              working on a common directory               *
           ************************************************************

-------------------------------------------------------------------------------------------
                                      ORCA LEAN-SCF
                              memory conserving SCF solver
-------------------------------------------------------------------------------------------

----------------------------------------D-I-I-S--------------------------------------------
Iteration    Energy (Eh)           Delta-E    RMSDP     MaxDP     DIISErr   Damp  Time(sec)
-------------------------------------------------------------------------------------------
               ***  Starting incremental Fock matrix formation  ***
[ga01:946124] 24 more processes have sent help message help-mpi-btl-openib.txt / error in device init
[ga01:946124] Set MCA parameter "orte_base_help_aggregate" to 0 to see all help / error messages
    1    -1188.6158560272933755     0.00e+00  1.31e-03  1.92e-01  2.93e-01  0.700   5.0
    2    -1188.9520385875021020    -3.36e-01  1.17e-03  2.06e-01  1.07e-01  0.700   3.2
                               ***Turning on AO-DIIS***
    3    -1189.0885845751026864    -1.37e-01  4.43e-04  6.01e-02  3.80e-02  0.700   2.9
    4    -1189.1701104170610961    -8.15e-02  6.44e-04  3.91e-02  1.91e-02  0.000   2.8
    5    -1189.3475830475208568    -1.77e-01  2.96e-04  5.44e-02  5.26e-03  0.000   2.9
                              *** Initializing SOSCF ***
---------------------------------------S-O-S-C-F--------------------------------------
Iteration    Energy (Eh)           Delta-E    RMSDP     MaxDP     MaxGrad    Time(sec)
--------------------------------------------------------------------------------------
    6    -1189.3484778956612899    -8.95e-04  1.06e-04  1.75e-02  1.78e-03     3.0
               *** Restarting incremental Fock matrix formation ***
    7    -1189.3485115928810956    -3.37e-05  7.92e-05  1.11e-02  2.34e-04     4.9
    8    -1189.3485047136955473     6.88e-06  1.34e-05  1.39e-03  4.90e-04     3.5
    9    -1189.3485190974242869    -1.44e-05  1.06e-05  9.35e-04  6.07e-05     3.1
   10    -1189.3485188014401501     2.96e-07  3.26e-06  3.24e-04  6.37e-05     3.3
   11    -1189.3485194476866127    -6.46e-07  3.14e-06  2.98e-04  1.51e-05     2.6
   12    -1189.3485194487084300    -1.02e-09  1.19e-06  1.18e-04  2.31e-05     2.5
                 **** Energy Check signals convergence ****

               *****************************************************
               *                     SUCCESS                       *
               *           SCF CONVERGED AFTER  12 CYCLES          *
               *****************************************************

Recomputing exchange energy using gridx3       ... done (    7.191 sec)
Old exchange energy                            :    -31.593920515 Eh
New exchange energy                            :    -31.593924903 Eh
Exchange energy change after final integration :     -0.000004388 Eh
Total energy after final integration           :  -1189.348523837 Eh
             **** ENERGY FILE WAS UPDATED (honokiol2-opt_EC_closer.en.tmp) ****

----------------
TOTAL SCF ENERGY
----------------

Total Energy       :      -1189.34852383683551 Eh          -32363.81868 eV

Components:
Nuclear Repulsion  :       2274.47287659611357 Eh           61891.55348 eV
Electronic Energy  :      -3463.82139604482200 Eh          -94255.37204 eV
One Electron Energy:      -6140.42148080512197 Eh         -167089.36315 eV
Two Electron Energy:       2676.60008476029998 Eh           72833.99111 eV

Virial components:
Potential Energy   :      -2373.50767699113521 Eh          -64586.42740 eV
Kinetic Energy     :       1184.15915315429970 Eh           32222.60872 eV
Virial Ratio       :          2.00438232535611

DFT components:
N(Alpha)           :       94.000050001647 electrons
N(Beta)            :       94.000050001647 electrons
N(Total)           :      188.000100003294 electrons
E(X)               :     -125.585734570414 Eh       
E(C)               :       -7.547935318338 Eh       
E(XC)              :     -133.133669888753 Eh       

---------------
SCF CONVERGENCE
---------------

  Last Energy change         ...    1.0218e-09  Tolerance :   1.0000e-08
  Last MAX-Density change    ...    1.1806e-04  Tolerance :   1.0000e-07
  Last RMS-Density change    ...    1.1941e-06  Tolerance :   5.0000e-09
  Last DIIS Error            ...    1.7832e-03  Tolerance :   5.0000e-07
  Last Orbital Gradient      ...    2.3082e-05  Tolerance :   1.0000e-05
  Last Orbital Rotation      ...    3.6071e-05  Tolerance :   1.0000e-05


----------------
ORBITAL ENERGIES
----------------

  NO   OCC          E(Eh)            E(eV) 
   0   2.0000     -19.194154      -522.2995 
   1   2.0000     -19.193502      -522.2817 
   2   2.0000     -19.156359      -521.2710 
   3   2.0000     -19.124296      -520.3986 
   4   2.0000     -19.123563      -520.3786 
   5   2.0000     -10.356148      -281.8051 
   6   2.0000     -10.260903      -279.2134 
   7   2.0000     -10.258575      -279.1500 
   8   2.0000     -10.233842      -278.4770 
   9   2.0000     -10.216839      -278.0143 
  10   2.0000     -10.198007      -277.5019 
  11   2.0000     -10.192789      -277.3599 
  12   2.0000     -10.185075      -277.1500 
  13   2.0000     -10.184969      -277.1471 
  14   2.0000     -10.176367      -276.9130 
  15   2.0000     -10.173220      -276.8274 
  16   2.0000     -10.171282      -276.7746 
  17   2.0000     -10.169268      -276.7199 
  18   2.0000     -10.168923      -276.7105 
  19   2.0000     -10.167965      -276.6844 
  20   2.0000     -10.167272      -276.6655 
  21   2.0000     -10.162556      -276.5372 
  22   2.0000     -10.158825      -276.4357 
  23   2.0000     -10.158528      -276.4276 
  24   2.0000     -10.154840      -276.3272 
  25   2.0000     -10.151738      -276.2428 
  26   2.0000      -1.170908       -31.8620 
  27   2.0000      -1.060963       -28.8703 
  28   2.0000      -1.058746       -28.8100 
  29   2.0000      -1.053568       -28.6690 
  30   2.0000      -1.032708       -28.1014 
  31   2.0000      -0.865190       -23.5430 
  32   2.0000      -0.843896       -22.9636 
  33   2.0000      -0.819538       -22.3008 
  34   2.0000      -0.795322       -21.6418 
  35   2.0000      -0.791546       -21.5390 
  36   2.0000      -0.768588       -20.9143 
  37   2.0000      -0.759928       -20.6787 
  38   2.0000      -0.733296       -19.9540 
  39   2.0000      -0.715353       -19.4657 
  40   2.0000      -0.693102       -18.8603 
  41   2.0000      -0.692080       -18.8325 
  42   2.0000      -0.667867       -18.1736 
  43   2.0000      -0.626666       -17.0525 
  44   2.0000      -0.620124       -16.8744 
  45   2.0000      -0.615410       -16.7461 
  46   2.0000      -0.588462       -16.0129 
  47   2.0000      -0.581434       -15.8216 
  48   2.0000      -0.575320       -15.6553 
  49   2.0000      -0.555230       -15.1086 
  50   2.0000      -0.548808       -14.9338 
  51   2.0000      -0.544237       -14.8094 
  52   2.0000      -0.535444       -14.5702 
  53   2.0000      -0.526712       -14.3326 
  54   2.0000      -0.518624       -14.1125 
  55   2.0000      -0.494573       -13.4580 
  56   2.0000      -0.485624       -13.2145 
  57   2.0000      -0.477430       -12.9915 
  58   2.0000      -0.469468       -12.7749 
  59   2.0000      -0.460149       -12.5213 
  60   2.0000      -0.456635       -12.4257 
  61   2.0000      -0.454707       -12.3732 
  62   2.0000      -0.453960       -12.3529 
  63   2.0000      -0.451928       -12.2976 
  64   2.0000      -0.440127       -11.9765 
  65   2.0000      -0.427309       -11.6277 
  66   2.0000      -0.425078       -11.5670 
  67   2.0000      -0.419673       -11.4199 
  68   2.0000      -0.416034       -11.3209 
  69   2.0000      -0.413458       -11.2508 
  70   2.0000      -0.401036       -10.9127 
  71   2.0000      -0.395692       -10.7673 
  72   2.0000      -0.392256       -10.6738 
  73   2.0000      -0.391943       -10.6653 
  74   2.0000      -0.391145       -10.6436 
  75   2.0000      -0.379941       -10.3387 
  76   2.0000      -0.373295       -10.1579 
  77   2.0000      -0.366123        -9.9627 
  78   2.0000      -0.355142        -9.6639 
  79   2.0000      -0.350045        -9.5252 
  80   2.0000      -0.348226        -9.4757 
  81   2.0000      -0.341206        -9.2847 
  82   2.0000      -0.333139        -9.0652 
  83   2.0000      -0.327084        -8.9004 
  84   2.0000      -0.324100        -8.8192 
  85   2.0000      -0.320543        -8.7224 
  86   2.0000      -0.314367        -8.5544 
  87   2.0000      -0.306503        -8.3404 
  88   2.0000      -0.287158        -7.8140 
  89   2.0000      -0.258697        -7.0395 
  90   2.0000      -0.253800        -6.9063 
  91   2.0000      -0.251661        -6.8480 
  92   2.0000      -0.222922        -6.0660 
  93   2.0000      -0.202177        -5.5015 
  94   0.0000      -0.027652        -0.7524 
  95   0.0000      -0.018046        -0.4911 
  96   0.0000      -0.006114        -0.1664 
  97   0.0000       0.007245         0.1971 
  98   0.0000       0.008632         0.2349 
  99   0.0000       0.012235         0.3329 
 100   0.0000       0.020156         0.5485 
 101   0.0000       0.028868         0.7855 
 102   0.0000       0.031782         0.8648 
 103   0.0000       0.040405         1.0995 
 104   0.0000       0.051290         1.3957 
*Only the first 10 virtual orbitals were printed.

                    ********************************
                    * MULLIKEN POPULATION ANALYSIS *
                    ********************************

-----------------------
MULLIKEN ATOMIC CHARGES
-----------------------
   0 O :   -0.406089
   1 O :   -0.437249
   2 C :    0.106674
   3 C :    0.088014
   4 C :    0.106870
   5 C :   -0.256111
   6 C :    0.123255
   7 C :   -0.258972
   8 C :    0.219526
   9 C :   -0.191676
  10 C :    0.250562
  11 C :   -0.257120
  12 C :   -0.191921
  13 C :   -0.136773
  14 C :   -0.222219
  15 C :   -0.231304
  16 C :   -0.135898
  17 C :   -0.086533
  18 C :   -0.273067
  19 C :   -0.266236
  20 H :    0.118375
  21 H :    0.116959
  22 H :    0.118519
  23 H :    0.124289
  24 H :    0.119128
  25 H :    0.099145
  26 H :    0.103972
  27 H :    0.090822
  28 H :    0.105782
  29 H :    0.101226
  30 H :    0.119013
  31 H :    0.100935
  32 H :    0.339470
  33 H :    0.322777
  34 H :    0.124623
  35 H :    0.118723
  36 H :    0.106635
  37 H :    0.099274
  38 H :    0.113963
  39 H :    0.121102
  40 C :   -0.014796
  41 O :   -0.254847
  42 C :    0.441558
  43 C :   -0.030220
  44 O :   -0.259531
  45 O :   -0.331827
  46 H :    0.113475
  47 H :    0.127723
Sum of atomic charges:   -0.0000000

--------------------------------
MULLIKEN REDUCED ORBITAL CHARGES
--------------------------------
  0 O s       :     3.764082  s :     3.764082
      pz      :     1.499510  p :     4.610404
      px      :     1.340323
      py      :     1.770570
      dz2     :     0.010224  d :     0.029880
      dxz     :     0.004290
      dyz     :     0.006291
      dx2y2   :     0.006346
      dxy     :     0.002730
      f0      :     0.000193  f :     0.001723
      f+1     :     0.000388
      f-1     :     0.000245
      f+2     :     0.000203
      f-2     :     0.000188
      f+3     :     0.000371
      f-3     :     0.000135

  1 O s       :     3.778912  s :     3.778912
      pz      :     1.522599  p :     4.626792
[...]
 C     42  40  39     1.349721753038   129.59654755   354.29946315
 C     40  39   2     1.087957630779    65.52493605    25.00628360
 O     43  42  40     1.351429966055   110.78880917   341.62668365
 O     43  42  40     1.192523567661   124.77320347   161.08425594
 H     41  39  45     1.087573949572   110.02682466   241.33153954
 H     44  40  39     1.090039110606   110.19824021   224.73200613

---------------------------
INTERNAL COORDINATES (A.U.)
---------------------------
 O      0   0   0     0.000000000000     0.00000000     0.00000000
 O      1   0   0    11.976041844590     0.00000000     0.00000000
 C      1   2   0     4.616123422882    63.02925571     0.00000000
 C      3   1   2     2.808437087564    94.47577358     0.51228632
 C      2   1   3     4.598072959548    47.49229031   324.13922437
 C      5   2   1     2.633054854381   146.41472547    24.79243661
 C      3   1   2     4.629237485748   117.12349267   181.36117462
 C      7   3   1     2.631678186909    28.64878886   182.00351829
 C      1   2   3     2.566778535291    91.54651496   358.75281300
 C      4   3   1     2.641469991138   121.25179687   302.14444103
 C      2   1   3     2.597505294180    25.22042285   357.50348042
 C      5   2   1     2.864551205184    92.78984276   208.31810344
 C      7   3   1     2.867330520337   149.48844471   180.78969279
 C      7   3   1     2.634559767941    88.97651644     1.73570759
 C     10   4   3     2.619942051528   120.88552061   181.73775128
 C     14   7   3     2.620051912691   121.05279419   359.06299805
 C     12   5   2     2.847590960848   113.93533153   299.57472414
 C     13   7   3     2.842142616615   113.39014461    65.84240054
 C     17  12   5     2.514074343094   125.15621335   125.31194161
 C     18  13   7     2.509416020220   125.24462372   237.00576341
 H      6   5   2     2.048840199610   118.55360472   182.94224497
 H      8   7   3     2.049370234602   119.11731147   181.41514604
 H     10   4   3     2.045761929946   119.69180970     0.96549230
 H     12   5   2     2.070535392502   110.20501264    62.78403453
 H     12   5   2     2.066708343720   107.99135244   178.66925903
 H     13   7   3     2.068339001488   110.30451810   303.13803545
 H     13   7   3     2.069441327040   108.29585311   186.88349140
 H     14   7   3     2.049220586182   119.70252653   179.42731335
 H     15  10   4     2.045635310988   120.78747491   178.77902943
 H     16  14   7     2.045676753402   121.06973355   181.45797400
 H     17  12   5     2.054327601343   115.63319823   305.72342066
 H     18  13   7     2.055029455107   115.53486197    56.58494083
 H      1   2   3     1.834566471960    29.03198966   138.11130254
 H      2   1   3     1.830887817871   130.43998845   317.44098062
 H     19  17  12     2.045991024511   121.63013187   179.65139688
 H     19  17  12     2.051473471582   121.59068110     1.00843351
 H     20  18  13     2.046693713015   121.64346999   180.16883652
 H     20  18  13     2.050367758850   121.58284191   359.89824135
 H      2   1   3     9.201660470747    74.50031107   209.44556162
 H     39   2   1     4.567780112624    69.08336425   275.77114362
 C     39   2   1     2.062046855300    12.98339635   348.37533541
 O     40  39   2     3.892304334935    81.62527708    65.07918249
 C     42  40  39     2.550604470239   129.59654755   354.29946315
 C     40  39   2     2.055941967482    65.52493605    25.00628360
 O     43  42  40     2.553832525018   110.78880917   341.62668365
 O     43  42  40     2.253542951125   124.77320347   161.08425594
 H     41  39  45     2.055216915079   110.02682466   241.33153954
 H     44  40  39     2.059875394308   110.19824021   224.73200613

--------------------------------------------------------------------------
WARNING: There was an error initializing an OpenFabrics device.

  Local host:   ga01
  Local device: mlx5_0
--------------------------------------------------------------------------


           ************************************************************
           *        Program running with 25 parallel MPI-processes    *
           *              working on a common directory               *
           ************************************************************
------------------------------------------------------------------------------
                   ___                                                        
                  /   \      - P O W E R E D   B Y -                         
                 /     \                                                     
                 |  |  |   _    _      __       _____    __    __             
                 |  |  |  | |  | |    /  \     |  _  \  |  |  /  |          
                  \  \/   | |  | |   /    \    | | | |  |  | /  /          
                 / \  \   | |__| |  /  /\  \   | |_| |  |  |/  /          
                |  |  |   |  __  | /  /__\  \  |    /   |      \           
                |  |  |   | |  | | |   __   |  |    \   |  |\   \          
                \     /   | |  | | |  |  |  |  | |\  \  |  | \   \       
                 \___/    |_|  |_| |__|  |__|  |_| \__\ |__|  \__/        
                                                                              
                      - O R C A' S   B I G   F R I E N D -                    
                                      &                                       
                       - I N T E G R A L  F E E D E R -                       
                                                                              
 v1 FN, 2020, v2 2021, v3 2022-2024                                           
------------------------------------------------------------------------------


----------------------
SHARK INTEGRAL PACKAGE
----------------------

Number of atoms                             ...     48
Number of basis functions                   ...    938
Number of shells                            ...    374
Maximum angular momentum                    ...      3
Integral batch strategy                     ... SHARK/LIBINT Hybrid
RI-J (if used) integral strategy            ... SPLIT-RIJ (Revised 2003 algorithm where possible)
Printlevel                                  ...      1
Contraction scheme used                     ... SEGMENTED contraction
Prescreening option                         ... SCHWARTZ
   Thresh                                   ... 2.500e-11
   Tcut                                     ... 2.500e-12
   Tpresel                                  ... 2.500e-12 
Coulomb Range Separation                    ... NOT USED
Exchange Range Separation                   ... NOT USED
Multipole approximations                    ... NOT USED
Finite Nucleus Model                        ... NOT USED
CABS basis                                  ... NOT available
Auxiliary Coulomb fitting basis             ... AVAILABLE
   # of basis functions in Aux-J            ...   1516
   # of shells in Aux-J                     ...    500
   Maximum angular momentum in Aux-J        ...      4
Auxiliary J/K fitting basis                 ... NOT available
Auxiliary Correlation fitting basis         ... NOT available
Auxiliary 'external' fitting basis          ... NOT available

Checking pre-screening integrals            ... done (  0.0 sec) Dimension = 374
Check shell pair data                       ... done (  0.0 sec)
Shell pair information
Shell pair cut-off parameter TPreSel        ...   2.5e-12
Total number of shell pairs                 ...     70125
Shell pairs after pre-screening             ...     44116
Total number of primitive shell pairs       ...    213516
Primitive shell pairs kept                  ...     87372
          la=0 lb=0:  11744 shell pairs
          la=1 lb=0:  12952 shell pairs
          la=1 lb=1:   3601 shell pairs
          la=2 lb=0:   6124 shell pairs
          la=2 lb=1:   3456 shell pairs
          la=2 lb=2:    839 shell pairs
          la=3 lb=0:   2830 shell pairs
          la=3 lb=1:   1635 shell pairs
          la=3 lb=2:    746 shell pairs
          la=3 lb=3:    189 shell pairs

Calculating one electron integrals          ... done (  0.1 sec)
Calculating RI/J V-Matrix + Cholesky decomp.... done (  0.1 sec)
Calculating Nuclear repulsion               ... done (  0.0 sec) ENN=   2272.714720741185 Eh

Diagonalization of the overlap matrix:
Smallest eigenvalue                        ... 5.688e-06
Time for diagonalization                   ...    0.133 sec
Threshold for overlap eigenvalues          ... 1.000e-07
Number of eigenvalues below threshold      ... 0
Time for construction of square roots      ...    0.069 sec
Total time needed                          ...    0.212 sec

-------------------
DFT GRID GENERATION
-------------------

General Integration Accuracy     IntAcc      ... 4.388
Radial Grid Type                 RadialGrid  ... OptM3 with GC (2021)
Angular Grid (max. ang.)         AngularGrid ... 4 (Lebedev-302)
Angular grid pruning method      GridPruning ... 4 (adaptive)
Weight generation scheme         WeightScheme... mBecke (2022)
Basis function cutoff            BFCut       ... 1.0000e-11
Integration weight cutoff        WCut        ... 1.0000e-14
Partially contracted basis set               ... off
Rotationally invariant grid construction     ... off
Angular grids for H and He will be reduced by one unit

Total number of grid points                  ...   225613
Total number of batches                      ...     3550
Average number of points per batch           ...       63
Average number of grid points per atom       ...     4700

--------------------
COSX GRID GENERATION
--------------------

GRIDX 1
-------
General Integration Accuracy     IntAcc      ... 3.816
Radial Grid Type                 RadialGrid  ... OptM3 with GC (2021)
Angular Grid (max. ang.)         AngularGrid ... 1 (Lebedev-50)
Angular grid pruning method      GridPruning ... 4 (adaptive)
Weight generation scheme         WeightScheme... mBecke (2022)
Basis function cutoff            BFCut       ... 1.0000e-11
Integration weight cutoff        WCut        ... 1.0000e-14
Partially contracted basis set               ... on
Rotationally invariant grid construction     ... off
Angular grids for H and He will be reduced by one unit

Total number of grid points                  ...    28621
Total number of batches                      ...      255
Average number of points per batch           ...      112
Average number of grid points per atom       ...      596
UseSFitting                                  ... on

GRIDX 2
-------
General Integration Accuracy     IntAcc      ... 4.020
Radial Grid Type                 RadialGrid  ... OptM3 with GC (2021)
Angular Grid (max. ang.)         AngularGrid ... 2 (Lebedev-110)
Angular grid pruning method      GridPruning ... 4 (adaptive)
Weight generation scheme         WeightScheme... mBecke (2022)
Basis function cutoff            BFCut       ... 1.0000e-11
Integration weight cutoff        WCut        ... 1.0000e-14
Partially contracted basis set               ... on
Rotationally invariant grid construction     ... off
Angular grids for H and He will be reduced by one unit

Total number of grid points                  ...    61776
Total number of batches                      ...      511
Average number of points per batch           ...      120
Average number of grid points per atom       ...     1287
UseSFitting                                  ... on

GRIDX 3
-------
General Integration Accuracy     IntAcc      ... 4.338
Radial Grid Type                 RadialGrid  ... OptM3 with GC (2021)
Angular Grid (max. ang.)         AngularGrid ... 3 (Lebedev-194)
Angular grid pruning method      GridPruning ... 4 (adaptive)
Weight generation scheme         WeightScheme... mBecke (2022)
Basis function cutoff            BFCut       ... 1.0000e-11
Integration weight cutoff        WCut        ... 1.0000e-14
Partially contracted basis set               ... on
Rotationally invariant grid construction     ... off
Angular grids for H and He will be reduced by one unit

Total number of grid points                  ...   134921
Total number of batches                      ...     1077
Average number of points per batch           ...      125
Average number of grid points per atom       ...     2811
UseSFitting                                  ... on
Initializing property integral containers    ... done (  0.0 sec)

SHARK setup successfully completed in   3.2 seconds

Maximum memory used throughout the entire STARTUP-calculation: 103.6 MB
[ga01:950065] 24 more processes have sent help message help-mpi-btl-openib.txt / error in device init
[ga01:950065] Set MCA parameter "orte_base_help_aggregate" to 0 to see all help / error messages
--------------------------------------------------------------------------
WARNING: There was an error initializing an OpenFabrics device.

  Local host:   ga01
  Local device: mlx5_0
--------------------------------------------------------------------------


           ************************************************************
           *        Program running with 25 parallel MPI-processes    *
           *              working on a common directory               *
           ************************************************************
Occupation numbers will be reassigned to an Aufbau configuration
             **** ENERGY FILE WAS UPDATED (honokiol2-opt_EC_closer.en.tmp) ****
Finished Guess after   1.4 sec
Maximum memory used throughout the entire GUESS-calculation: 96.1 MB
[ga01:950188] 24 more processes have sent help message help-mpi-btl-openib.txt / error in device init
[ga01:950188] Set MCA parameter "orte_base_help_aggregate" to 0 to see all help / error messages
--------------------------------------------------------------------------
WARNING: There was an error initializing an OpenFabrics device.

  Local host:   ga01
  Local device: mlx5_0
--------------------------------------------------------------------------


           ************************************************************
           *        Program running with 25 parallel MPI-processes    *
           *              working on a common directory               *
           ************************************************************
----------------------------------------D-I-I-S--------------------------------------------
Iteration    Energy (Eh)           Delta-E    RMSDP     MaxDP     DIISErr   Damp  Time(sec)
-------------------------------------------------------------------------------------------
               ***  Starting incremental Fock matrix formation  ***
[ga01:950295] 24 more processes have sent help message help-mpi-btl-openib.txt / error in device init
[ga01:950295] Set MCA parameter "orte_base_help_aggregate" to 0 to see all help / error messages
    1    -1189.3484688584703690     0.00e+00  2.00e-05  1.23e-03  3.67e-03  0.700   5.0
                              *** Initializing SOSCF ***
---------------------------------------S-O-S-C-F--------------------------------------
Iteration    Energy (Eh)           Delta-E    RMSDP     MaxDP     MaxGrad    Time(sec)
--------------------------------------------------------------------------------------
    2    -1189.3485039788088216    -3.51e-05  5.84e-05  3.40e-03  2.80e-03     2.8
               *** Restarting incremental Fock matrix formation ***
    3    -1189.3485990956883143    -9.51e-05  9.57e-06  4.78e-04  1.12e-04     4.9
    4    -1189.3486016211281822    -2.53e-06  5.90e-06  7.54e-04  1.16e-04     3.1
    5    -1189.3486012392768316     3.82e-07  3.55e-06  3.76e-04  1.68e-04     2.9
    6    -1189.3486020323675803    -7.93e-07  1.62e-06  1.75e-04  1.11e-05     2.7
    7    -1189.3486020085665587     2.38e-08  1.00e-06  1.65e-04  1.23e-05     2.4
    8    -1189.3486020532413932    -4.47e-08  2.56e-06  3.53e-04  2.03e-06     2.2
                  *** Gradient check signals convergence ***

               *****************************************************
               *                     SUCCESS                       *
               *           SCF CONVERGED AFTER   8 CYCLES          *
               *****************************************************

Recomputing exchange energy using gridx3       ... done (    7.218 sec)
Old exchange energy                            :    -31.593668052 Eh
New exchange energy                            :    -31.593667017 Eh
Exchange energy change after final integration :      0.000001035 Eh
Total energy after final integration           :  -1189.348601019 Eh
             **** ENERGY FILE WAS UPDATED (honokiol2-opt_EC_closer.en.tmp) ****

----------------
TOTAL SCF ENERGY
----------------

Total Energy       :      -1189.34860101868094 Eh          -32363.82078 eV

Components:
Nuclear Repulsion  :       2272.71472074118492 Eh           61843.71162 eV
Electronic Energy  :      -3462.06332279442631 Eh          -94207.53243 eV
One Electron Energy:      -6136.87460017812282 Eh         -166992.84762 eV
Two Electron Energy:       2674.81127738369651 Eh           72785.31519 eV

Virial components:
Potential Energy   :      -2373.50717184227142 Eh          -64586.41366 eV
Kinetic Energy     :       1184.15857082359048 Eh           32222.59288 eV
Virial Ratio       :          2.00438288445734

DFT components:
N(Alpha)           :       94.000047052675 electrons
N(Beta)            :       94.000047052675 electrons
N(Total)           :      188.000094105350 electrons
E(X)               :     -125.584929992497 Eh       
E(C)               :       -7.547732776363 Eh       
E(XC)              :     -133.132662768859 Eh       

---------------
SCF CONVERGENCE
---------------

  Last Energy change         ...    4.4675e-08  Tolerance :   1.0000e-08
  Last MAX-Density change    ...    3.5306e-04  Tolerance :   1.0000e-07
  Last RMS-Density change    ...    2.5621e-06  Tolerance :   5.0000e-09
  Last DIIS Error            ...    2.7994e-03  Tolerance :   5.0000e-07
  Last Orbital Gradient      ...    2.0347e-06  Tolerance :   1.0000e-05
  Last Orbital Rotation      ...    7.5929e-06  Tolerance :   1.0000e-05


Total SCF time: 0 days 0 hours 0 min 34 sec 
Finished LeanSCF after  34.6 sec

Maximum memory used throughout the entire LEANSCF-calculation: 151.9 MB

-------------------------   --------------------
FINAL SINGLE POINT ENERGY     -1189.348601018681
-------------------------   --------------------

--------------------------------------------------------------------------
WARNING: There was an error initializing an OpenFabrics device.

  Local host:   ga01
  Local device: mlx5_0
--------------------------------------------------------------------------
[ga01:950414] *** Process received signal ***
[ga01:950414] Signal: Segmentation fault (11)
[ga01:950414] Signal code: Address not mapped (1)
[ga01:950414] Failing at address: (nil)
[ga01:950414] [ 0] /usr/lib64/libpthread.so.0(+0x12cf0)[0x155034124cf0]
[ga01:950414] [ 1] /usr/lib64/libc.so.6(+0xc84d2)[0x155033e144d2]
[ga01:950414] [ 2] /home/yongsang/.openmpi/lib/libopen-rte.so.40(+0x2b27d)[0x15503520f27d]
[ga01:950414] [ 3] /home/yongsang/.openmpi/lib/libopen-rte.so.40(orte_show_help_recv+0x147)[0x15503520f6f7]
[ga01:950414] [ 4] /home/yongsang/.openmpi/lib/libopen-rte.so.40(orte_rml_base_process_msg+0x39b)[0x15503526b21b]
[ga01:950414] [ 5] /home/yongsang/.openmpi/lib/libopen-pal.so.40(opal_libevent2022_event_base_loop+0x769)[0x155034f595b9]
[ga01:950414] [ 6] mpirun[0x400f39]
[ga01:950414] [ 7] /usr/lib64/libc.so.6(__libc_start_main+0xe5)[0x155033d86d85]
[ga01:950414] [ 8] mpirun[0x400cde]
[ga01:950414] *** End of error message ***

ORCA finished by error termination in SCF gradient
Calling Command: mpirun -np 25  /home/yongsang/orca_6_0_1_linux_x86-64_shared_openmpi416/orca_scfgrad_mpi honokiol2-opt_EC_closer.scfgrad.inp honokiol2-opt_EC_closer 
[file orca_tools/qcmsg.cpp, line 394]: 
  .... aborting the run

[file orca_tools/qcmsg.cpp, line 394]: 
  .... aborting the run

