
                                 *****************
                                 * O   R   C   A *
                                 *****************

                                            #,                                       
                                            ###                                      
                                            ####                                     
                                            #####                                    
                                            ######                                   
                                           ########,                                 
                                     ,,################,,,,,                         
                               ,,#################################,,                 
                          ,,##########################################,,             
                       ,#########################################, ''#####,          
                    ,#############################################,,   '####,        
                  ,##################################################,,,,####,       
                ,###########''''           ''''###############################       
              ,#####''   ,,,,##########,,,,          '''####'''          '####       
            ,##' ,,,,###########################,,,                        '##       
           ' ,,###''''                  '''############,,,                           
         ,,##''                                '''############,,,,        ,,,,,,###''
      ,#''                                            '''#######################'''  
     '                                                          ''''####''''         
             ,#######,   #######,   ,#######,      ##                                
            ,#'     '#,  ##    ##  ,#'     '#,    #''#        ,####,   ,####,        
            ##       ##  ##   ,#'  ##            #'  '#       #'       #'  '#        
            ##       ##  #######   ##           ,######,      #####,   #    #        
            '#,     ,#'  ##    ##  '#,     ,#' ,#      #,     #,   #   #,  ,#        
             '#######'   ##     ##  '#######'  #'      '#     '####' # '####'        



                #########################################################
                #                        -***-                          #
                #          Department of theory and spectroscopy        #
                #                                                       #
                #                      Frank Neese                      #
                #                                                       #
                #     Directorship, Architecture, Infrastructure        #
                #                    SHARK, DRIVERS                     #
                #        Core code/Algorithms in most modules           #
                #                                                       #
                #        Max Planck Institute fuer Kohlenforschung      #
                #                Kaiser Wilhelm Platz 1                 #
                #                 D-45470 Muelheim/Ruhr                 #
                #                      Germany                          #
                #                                                       #
                #                  All rights reserved                  #
                #                        -***-                          #
                #########################################################


                         Program Version 6.0.1  -  RELEASE   -


 With contributions from (in alphabetic order):
[Max-Planck-Institut fuer Kohlenforschung]                               
  Daniel Aravena         : Magnetic Suceptibility                        
  Michael Atanasov       : Ab Initio Ligand Field Theory (pilot matlab implementation)
  Alexander A. Auer      : GIAO ZORA, VPT2 properties, NMR spectrum      
  Ute Becker             : All parallelization in ORCA, NUMFREQ, NUMCALC 
  Giovanni Bistoni       : ED, misc. LED, open-shell LED, HFLD           
  Martin Brehm           : Molecular dynamics                            
  Dmytro Bykov           : pre 5.0 version of the SCF Hessian            
  Marcos Casanova-Páez   : Triplet and SCS-CIS(D). UHF-(DLPNO)-IP/EA/STEOM-CCSD. UHF-CVS-IP/STEOM-CCSD   
  Vijay G. Chilkuri      : MRCI spin determinant printing, contributions to CSF-ICE 
  Pauline Colinet        : FMM embedding                                 
  Dipayan Datta          : RHF DLPNO-CCSD density                        
  Achintya Kumar Dutta   : EOM-CC, STEOM-CC                              
  Nicolas Foglia         : Exact transition moments, OPA infrastructure, MCD improvements    
  Dmitry Ganyushin       : Spin-Orbit,Spin-Spin,Magnetic field MRCI      
  Miquel Garcia-Rates    : C-PCM and meta-GGA Hessian, CCSD/C-PCM, Gaussian charge scheme 
  Tiago L. C. Gouveia    : GS-ROHF, GS-ROCIS                             
  Yang Guo               : DLPNO-NEVPT2, F12-NEVPT2, CIM, IAO-localization        
  Andreas Hansen         : Spin unrestricted coupled pair/coupled cluster methods 
  Ingolf Harden          : AUTO-CI MPn and infrastructure                
  Benjamin Helmich-Paris : MC-RPA, TRAH-(SCF,CASSCF), AVAS, COSX integrals, SCF dyn. polar. 
  Lee Huntington         : MR-EOM, pCC                                   
  Robert Izsak           : Overlap fitted RIJCOSX, COSX-SCS-MP3, EOM     
  Riya Kayal             : Wick's Theorem for AUTO-CI, AUTO-CI UHF-CCSDT 
  Emily Kempfer          : AUTO-CI, RHF CISDT and CCSDT                  
  Christian Kollmar      : KDIIS, OOCD, Brueckner-CCSD(T), CCSD density, CASPT2, CASPT2-K, improved NEVPT2 
  Axel Koslowski         : Symmetry handling                             
  Simone Kossmann        : meta-GGA functionals, TD-DFT gradient, OOMP2, (MP2 Hessian; deprecated post 5.0) 
  Lucas Lang             : DCDCAS                                        
  Marvin Lechner         : AUTO-CI (C++ implementation), FIC-MRCC        
  Spencer Leger          : CASSCF response                               
  Dagmar Lenk            : GEPOL surface, SMD, ORCA-2-JSON               
  Dimitrios Liakos       : Extrapolation schemes; Compound Job, initial MDCI parallelization 
  Dimitrios Manganas     : Further ROCIS development; embedding schemes. LFT, Crystal Embedding 
  Dimitrios Pantazis     : SARC Basis sets                               
  Anastasios Papadopoulos: AUTO-CI, single reference methods and gradients 
  Taras Petrenko         : pre 6.0 DFT Hessian and TD-DFT gradient, (ASA, deprecated), ECA, 1-Electron XAS/XES, NRVS 
  Peter Pinski           : DLPNO-MP2, DLPNO-MP2 Gradient                 
  Christoph Reimann      : Effective Core Potentials                     
  Marius Retegan         : Local ZFS, SOC                                
  Christoph Riplinger    : Optimizer, TS searches, QM/MM, DLPNO-CCSD(T), (RO)-DLPNO pert. Triples 
  Michael Roemelt        : Original ROCIS implementation                 
  Masaaki Saitow         : Open-shell DLPNO-CCSD energy and density      
  Barbara Sandhoefer     : DKH picture change effects                    
  Kantharuban Sivalingam : CASSCF convergence/infrastructure, NEVPT2 and variants, FIC-MRCI 
  Bernardo de Souza      : ESD, SOC TD-DFT                               
  Georgi L. Stoychev     : AutoAux, RI-MP2 NMR, DLPNO-MP2 response, X2C  
  Van Anh Tran           : RI-MP2 g-tensors                              
  Willem Van den Heuvel  : Paramagnetic NMR                              
  Zikuan Wang            : NOTCH, Electric field optimization            
  Frank Wennmohs         : Technical directorship and infrastructure     
  Hang Xu                : AUTO-CI-Response properties                   
                                                                         
[FACCTs GmbH]                                                            
  Markus Bursch, Miquel Garcia-Rates, Christoph Riplinger, Bernardo de Souza, Georgi L. Stoychev 
                                                                 
  APM, Basis sets (HGBS, AHGBS, def-TZVP (Ac-Lr), def2-XVPD (La-Lu)), CI-OPT, improved COSX, DLPNO-Multilevel,           
  DOCKER, DRACO, updates on ESD, GOAT, IRC, LR-CPCM, MBIS, meta-GGA TD-DFT gradient, ML-optimized integration grids, 
  MM, NACMEs, nearIR, NEB, NEB-TS, NL-DFT gradient (VV10), 2- and 3-layer-ONIOM, interface openCOSMO-RS, QMMM,   
  Crystal-QMMM, SF, symmetry and pop. for TD-DFT, r2SCAN hybrids, SOLVATOR                                   
                                                                         
[Other institutions]                                                     
  V. Asgeirsson          : NEB                                           
  Christoph Bannwarth    : sTDA-DFT, sTD-DFT, PBEh-3c, B97-3c, D3        
  Sebastian Ehlert       : rSCAN, r2SCAN, r2SCAN-3c, D4, dhf basis sets  
  Marvin Friede          : D4 for Fr, Ra, Ac-Lr                          
  Lars Goerigk           : TD-DFT with DH, B97 family of functionals     
  Stefan Grimme          : VdW corrections, initial TS optimization, DFT functionals, gCP, sTDA/sTD-DF 
  Waldemar Hujo          : DFT-NL                                        
  H. Jonsson             : NEB                                           
  Holger Kruse           : gCP                                           
  Marcel Mueller         : wB97X-3c, vDZP basis set                      
  Hagen Neugebauer       : wr2SCAN                                       
  Tobias Risthaus        : range-separated hybrid DFT                    
  Lukas Wittmann         : regularized MP2, r2SCAN double-hybrids, wr2SCAN        
                                                                         
We gratefully acknowledge several colleagues who have allowed us to      
interface, adapt or use parts of their codes:                            
  Ed Valeev, F. Pavosevic, A. Kumar             : LibInt (2-el integral package), F12 methods 
  Garnet Chan, S. Sharma, J. Yang, R. Olivares  : DMRG                   
  Ulf Ekstrom                                   : XCFun DFT Library      
  Mihaly Kallay                                 : mrcc  (arbitrary order and MRCC methods)
  Frank Weinhold                                : gennbo (NPA and NBO analysis)           
  Simon Mueller                                 : openCOSMO-RS                            
  Christopher J. Cramer and Donald G. Truhlar   : smd solvation model                     
  S Lehtola, MJT Oliveira, MAL Marques          : LibXC Library                           
  Liviu Ungur et al                             : ANISO software                          


 Your calculation uses the libint2 library for the computation of 2-el integrals
 For citations please refer to: http://libint.valeyev.net

 Your ORCA version has been built with support for libXC version: 6.2.2
 For citations please refer to: https://libxc.gitlab.io

 This ORCA versions uses:
   CBLAS   interface :  Fast vector & matrix operations
   LAPACKE interface :  Fast linear algebra routines
   SCALAPACK package :  Parallel linear algebra routines
   Shared memory     :  Shared parallel matrices
   BLAS/LAPACK       :  OpenBLAS 0.3.27  USE64BITINT DYNAMIC_ARCH NO_AFFINITY SkylakeX SINGLE_THREADED
        Core in use  :  SkylakeX
   Copyright (c) 2011-2014, The OpenBLAS Project


NOTE: MaxCore=5000 MB was set to SCF,MP2,MDCI,CIPSI,MRCI and CIS
      => If you want to overwrite this, your respective input block should be placed after the MaxCore statement
Warning: RI is on but no J-basis has been assigned. Assigning Def2/J (nothing to worry about!)
================================================================================

----- Orbital basis set information -----
Your calculation utilizes the basis: def2-TZVP
   F. Weigend and R. Ahlrichs, Phys. Chem. Chem. Phys. 7, 3297 (2005).

----- AuxJ basis set information -----
Your calculation utilizes the auxiliary basis: def2/J
   F. Weigend, Phys. Chem. Chem. Phys. 8, 1057 (2006).

================================================================================
                                        WARNINGS
                       Please study these warnings very carefully!
================================================================================


WARNING: Geometry Optimization
  ===> : Switching off AutoStart
         For restart on a previous wavefunction, please use MOREAD

================================================================================
                                       INPUT FILE
================================================================================
NAME = honokiol2-opt_FEC2.inp
|  1> ! OPT B3LYP def2-TZVP TightSCF
|  2> 
|  3> %maxcore 5000
|  4> 
|  5> %pal
|  6> nprocs 25
|  7> end
|  8> 
|  9> * xyz 0 1
| 10> O           1.66125687428485      1.86462619260879      2.15840480610305
| 11>   O          -3.64072646467866     -1.52869255041700      2.04151283906418
| 12>   C           1.47998381280470      0.21235020831644      0.36599328734610
| 13>   C           0.13415061405137     -0.26081495024865      0.79113907604623
| 14>   C          -2.25966847356144     -0.47883071689287      0.33682730919713
| 15>   C          -0.97928791995061     -0.06950324005631     -0.03046847964106
| 16>   C           3.35624135159079      0.05112146866142     -1.20027803161066
| 17>   C           2.09186333850820     -0.33688869488870     -0.76357314894122
| 18>   C           2.16823662227097      1.21455600450201      1.07205454371204
| 19>   C          -0.05408351338261     -0.91355793887736      2.01165246091407
| 20>   C          -2.41155264267500     -1.13122168454085      1.56832288379768
| 21>   C          -3.44881912281668     -0.17258809630502     -0.55209666833632
| 22>   C           3.99312008837517     -0.59356725931726     -2.41769118443449
| 23>   C           4.02079436288689      1.03428755318019     -0.46836055955216
| 24>   C          -1.31307087202115     -1.35695383446160      2.39043492691355
| 25>   C           3.43763435851205      1.61043738079800      0.65077151032205
| 26>   C          -4.21107233339155     -1.39441733902091     -0.99280387476864
| 27>   C           3.15483349979018     -0.49347614438850     -3.66197753336512
| 28>   C          -5.51478801168419     -1.59161127327403     -0.81405899511513
| 29>   C           2.74946179178799     -1.52370445463763     -4.39466816255457
| 30>   H          -0.85887048109938      0.44624125598657     -0.97592187912187
| 31>   H           1.55760614307224     -1.10435211054403     -1.31203192720522
| 32>   H           0.79256526785247     -1.09044950030181      2.66348795245509
| 33>   H          -4.13123744353982      0.51573246483225     -0.04119056108301
| 34>   H          -3.07808324968150      0.35827047127968     -1.43246778538429
| 35>   H           4.20996610033354     -1.64762110515979     -2.21576915093052
| 36>   H           4.95839754650441     -0.10840580707910     -2.59754450777734
| 37>   H           5.01077786704535      1.35420953262723     -0.77398548337620
| 38>   H          -1.45739531965677     -1.88455582524434      3.32459343882956
| 39>   H           3.95289199770297      2.37691066437809      1.21654712570383
| 40>   H          -3.62306697315261     -2.16270517664120     -1.48879578495549
| 41>   H           2.86846802653547      0.51319667194686     -3.95657538228287
| 42>   H           0.73925660018230      1.62979796699276      2.34695049736212
| 43>   H          -4.25108969105313     -1.65260412498332      1.29813966346928
| 44>   H          -6.00581598675640     -2.49135854822892     -1.16283562674335
| 45>   H          -6.14267420503570     -0.84620413206810     -0.33578455553045
| 46>   H           2.14937549958818     -1.38551714762915     -5.28545313892996
| 47>   H           3.00606203422212     -2.54452460733017     -4.13135211866141
| 48>   H          -4.99272205988718      1.07417244378910      3.42513354385163
| 49>   H          -3.58890541695591     -0.50101170992521      4.62195987031893
| 50>   O          -2.11122584326292      0.92945569988331      4.82741451578907
| 51>   C          -3.48119575073332      0.52729577615149      4.96553018336402
| 52>   C          -4.22761876016690      1.50712725691309      4.06513919389514
| 53>   C          -1.98790482885592      1.77249157557136      3.78953424406264
| 54>   O          -0.96537386300147      2.20899568881028      3.36613337452393
| 55>   O          -3.21829459114101      2.06660442468620      3.26899096547466
| 56>   F          -4.81618994403682      2.50525314955753      4.80858122583433
| 57>   H          -3.78072038477833      0.62822724681850      6.00624403449342
| 58>   H           1.17273292660181      5.90392288708249     -0.84046097402147
| 59>   H           2.02637530426012      4.34647697447218     -0.59700673516728
| 60>   C           1.05735706746586      4.82823295858345     -0.72789123187780
| 61>   F          -0.69909703347411      5.56724155756354      0.70838164703762
| 62>   C           0.08293329465022      4.47676840853543      0.39267373098325
| 63>   H           0.52832428333113      4.09932900287588      1.30970104485652
| 64>   O           0.42380845275622      4.29314322344491     -1.89937442897010
| 65>   O          -0.72940250630449      3.48454256579790     -0.17560514661916
| 66>   C          -0.56700439865235      3.45529204586641     -1.53345381754210
| 67>   O          -1.20395528897957      2.77189699884827     -2.26712055002207
| 68> *
| 69> 
| 70>                          ****END OF INPUT****
================================================================================

                       *****************************
                       * Geometry Optimization Run *
                       *****************************

Geometry optimization settings:
Update method            Update   .... BFGS
Choice of coordinates    CoordSys .... (2022) Redundant Internals
Initial Hessian          InHess   .... Almloef's Model
Max. no of cycles        MaxIter  .... 174

Convergence Tolerances:
Energy Change            TolE     ....  5.0000e-06 Eh
Max. Gradient            TolMAXG  ....  3.0000e-04 Eh/bohr
RMS Gradient             TolRMSG  ....  1.0000e-04 Eh/bohr
Max. Displacement        TolMAXD  ....  4.0000e-03 bohr
RMS Displacement         TolRMSD  ....  2.0000e-03 bohr
Strict Convergence                .... False

------------------------------------------------------------------------------
                        ORCA OPTIMIZATION COORDINATE SETUP
------------------------------------------------------------------------------

The optimization will be done in redundant internal coordinates (2022)
Making redundant internal coordinates   ...  (2022 redundants) done
Evaluating the initial hessian          ...  (Almloef) done
Evaluating the coordinates              ...  done
Calculating the B-matrix                .... done
Calculating the G-matrix                .... done
Diagonalizing the G-matrix              .... done
Small eigenvalue found = 4.631e-03
Small eigenvalue found = 5.993e-03
Small eigenvalue found = 1.172e-02
Small eigenvalue found = 1.411e-02
Small eigenvalue found = 1.938e-02
Small eigenvalue found = 2.749e-02
The first mode is                       ....  265
The number of degrees of freedom        ....  168

    -----------------------------------------------------------------
                    Redundant Internal Coordinates


    -----------------------------------------------------------------
         Definition                    Initial Value    Approx d2E/dq
    -----------------------------------------------------------------
      1. B(C   3,C   2)                  1.4886         0.434955   
      2. B(C   5,C   4)                  1.3935         0.616825   
      3. B(C   5,C   3)                  1.3969         0.609114   
      4. B(C   7,C   6)                  1.3928         0.618384   
      5. B(C   7,C   2)                  1.3971         0.608637   
      6. B(C   8,C   2)                  1.4059         0.589288   
      7. B(C   8,O   0)                  1.3637         0.616279   
      8. B(C   9,C   3)                  1.3968         0.609295   
      9. B(C  10,C   4)                  1.4019         0.598118   
     10. B(C  10,O   1)                  1.3758         0.589615   
     11. B(C  11,C   4)                  1.5159         0.393389   
     12. B(C  12,C   6)                  1.5177         0.390880   
     13. B(C  13,C   6)                  1.3943         0.615104   
     14. B(C  14,C   9)                  1.3875         0.630587   
     15. B(C  14,C  10)                  1.3905         0.623654   
     16. B(C  15,C  13)                  1.3873         0.631125   
     17. B(C  15,C   8)                  1.3948         0.613791   
     18. B(C  16,C  11)                  1.5060         0.407966   
     19. B(C  17,C  12)                  1.5037         0.411531   
     20. B(C  18,C  16)                  1.3306         0.777140   
     21. B(C  19,C  17)                  1.3276         0.785756   
     22. B(H  20,C   5)                  1.0837         0.368551   
     23. B(H  21,C   7)                  1.0841         0.368012   
     24. B(H  22,C   9)                  1.0830         0.369414   
     25. B(H  23,C  11)                  1.0957         0.352670   
     26. B(H  24,C  11)                  1.0928         0.356357   
     27. B(H  25,C  12)                  1.0949         0.353665   
     28. B(H  26,C  12)                  1.0952         0.353271   
     29. B(H  27,C  13)                  1.0844         0.367647   
     30. B(H  28,C  14)                  1.0825         0.370135   
     31. B(H  29,C  15)                  1.0831         0.369364   
     32. B(H  30,C  16)                  1.0872         0.363810   
     33. B(H  31,C  17)                  1.0873         0.363713   
     34. B(H  32,O   0)                  0.9699         0.501317   
     35. B(H  33,O   1)                  0.9698         0.501580   
     36. B(H  34,C  18)                  1.0827         0.369850   
     37. B(H  35,C  18)                  1.0856         0.365911   
     38. B(H  36,C  19)                  1.0829         0.369600   
     39. B(H  37,C  19)                  1.0850         0.366758   
     40. B(H  39,O   1)                  2.7780         0.000654   
     41. B(C  41,O  40)                  1.4344         0.475302   
     42. B(C  41,H  39)                  1.0895         0.360733   
     43. B(C  42,C  41)                  1.5258         0.379449   
     44. B(C  42,H  38)                  1.0874         0.363555   
     45. B(C  43,O  40)                  1.3428         0.665548   
     46. B(O  44,H  32)                  2.0688         0.008850   
     47. B(O  44,C  43)                  1.1897         1.168018   
     48. B(O  45,C  43)                  1.3680         0.606781   
     49. B(O  45,C  42)                  1.4020         0.535465   
     50. B(F  46,C  42)                  1.3767         0.545937   
     51. B(H  47,C  41)                  1.0877         0.363219   
     52. B(H  49,C  15)                  3.3218         0.000099   
     53. B(H  49,H  29)                  3.2984         0.000021   
     54. B(C  50,H  49)                  1.0901         0.360030   
     55. B(C  50,H  48)                  1.0877         0.363155   
     56. B(C  52,F  51)                  1.3785         0.542312   
     57. B(C  52,C  50)                  1.5260         0.379096   
     58. B(H  53,H  32)                  2.6868         0.000195   
     59. B(H  53,O   0)                  2.6453         0.001064   
     60. B(H  53,C  52)                  1.0871         0.363965   
     61. B(H  53,F  51)                  2.0057         0.010368   
     62. B(H  53,C   8)                  3.3268         0.000097   
     63. B(H  53,O  44)                  3.1676         0.000156   
     64. B(O  54,C  50)                  1.4353         0.473813   
     65. B(O  55,C  52)                  1.4026         0.534246   
     66. B(O  55,H  53)                  2.0411         0.009799   
     67. B(O  55,H  20)                  3.1446         0.000170   
     68. B(C  56,O  55)                  1.3678         0.607062   
     69. B(C  56,O  54)                  1.3482         0.652512   
     70. B(C  56,H  20)                  3.0742         0.000246   
     71. B(O  57,H  20)                  2.6823         0.000929   
     72. B(O  57,C  56)                  1.1879         1.175935   
     73. B(O  57,H  24)                  3.1677         0.000156   
     74. A(C   8,O   0,H  32)          113.1305         0.367423   
     75. A(C   8,O   0,H  53)          107.8383         0.158137   
     76. A(H  32,O   0,H  53)           81.9395         0.145869   
     77. A(C  10,O   1,H  33)          109.6078         0.364683   
     78. A(C   3,C   2,C   7)          120.1260         0.406132   
     79. A(C   7,C   2,C   8)          118.1553         0.428696   
     80. A(C   3,C   2,C   8)          121.7184         0.403821   
     81. A(C   2,C   3,C   5)          120.6050         0.406188   
     82. A(C   2,C   3,C   9)          121.3270         0.406209   
     83. A(C   5,C   3,C   9)          118.0668         0.431333   
     84. A(C   5,C   4,C  10)          117.8910         0.430874   
     85. A(C   5,C   4,C  11)          120.4549         0.399943   
     86. A(C  10,C   4,C  11)          121.6105         0.397783   
     87. A(C   3,C   5,H  20)          119.3236         0.353237   
     88. A(C   3,C   5,C   4)          122.4873         0.432286   
     89. A(C   4,C   5,H  20)          118.1546         0.353990   
     90. A(C   7,C   6,C  12)          120.9386         0.399670   
     91. A(C   7,C   6,C  13)          117.6801         0.433244   
     92. A(C  12,C   6,C  13)          121.3738         0.399296   
     93. A(C   2,C   7,C   6)          122.7893         0.432421   
     94. A(C   6,C   7,H  21)          119.0759         0.354054   
     95. A(C   2,C   7,H  21)          118.1318         0.353102   
     96. A(O   0,C   8,H  53)           49.1938         0.129695   
     97. A(C   2,C   8,H  53)          114.3739         0.129619   
     98. A(O   0,C   8,C   2)          123.9083         0.426853   
     99. A(C   2,C   8,C  15)          119.7456         0.429345   
    100. A(O   0,C   8,C  15)          116.3357         0.429983   
    101. A(C  15,C   8,H  53)          102.9485         0.129995   
    102. A(C   3,C   9,H  22)          119.7924         0.353394   
    103. A(C   3,C   9,C  14)          120.6737         0.434028   
    104. A(C  14,C   9,H  22)          119.5267         0.355458   
    105. A(O   1,C  10,C   4)          122.2346         0.424616   
    106. A(C   4,C  10,C  14)          120.6195         0.431727   
    107. A(O   1,C  10,C  14)          117.1008         0.427807   
    108. A(C   4,C  11,C  16)          113.8742         0.372168   
    109. A(H  23,C  11,H  24)          106.3654         0.289415   
    110. A(C  16,C  11,H  24)          109.2723         0.328489   
    111. A(C   4,C  11,H  24)          107.7221         0.326525   
    112. A(C  16,C  11,H  23)          109.3223         0.327926   
    113. A(C   4,C  11,H  23)          110.0018         0.325967   
    114. A(H  25,C  12,H  26)          106.3908         0.289148   
    115. A(C  17,C  12,H  26)          109.0249         0.328489   
    116. A(C   6,C  12,H  26)          108.2649         0.325715   
    117. A(C  17,C  12,H  25)          109.0929         0.328550   
    118. A(C   6,C  12,H  25)          110.1277         0.325775   
    119. A(C   6,C  12,C  17)          113.6760         0.372315   
    120. A(C   6,C  13,C  15)          121.0636         0.434837   
    121. A(C  15,C  13,H  27)          119.2504         0.355220   
    122. A(C   6,C  13,H  27)          119.6857         0.353675   
    123. A(C   9,C  14,H  28)          120.8179         0.355575   
    124. A(C   9,C  14,C  10)          120.2346         0.435852   
    125. A(C  10,C  14,H  28)          118.9472         0.354909   
    126. A(C  13,C  15,H  29)          121.0200         0.355501   
    127. A(C   8,C  15,H  29)          118.4263         0.353827   
    128. A(C   8,C  15,C  13)          120.5537         0.434669   
    129. A(H  29,C  15,H  49)           79.3651         0.120738   
    130. A(C  13,C  15,H  49)          102.5704         0.130426   
    131. A(C   8,C  15,H  49)           87.7410         0.130166   
    132. A(C  18,C  16,H  30)          119.1086         0.367399   
    133. A(C  11,C  16,H  30)          115.6625         0.329614   
    134. A(C  11,C  16,C  18)          125.2278         0.419344   
    135. A(C  19,C  17,H  31)          119.2434         0.368077   
    136. A(C  12,C  17,H  31)          115.6374         0.330074   
    137. A(C  12,C  17,C  19)          125.1181         0.420822   
    138. A(H  34,C  18,H  35)          116.7559         0.292801   
    139. A(C  16,C  18,H  34)          121.6162         0.368438   
    140. A(C  16,C  18,H  35)          121.6072         0.367762   
    141. A(H  36,C  19,H  37)          116.7910         0.292876   
    142. A(C  17,C  19,H  36)          121.6113         0.369093   
    143. A(C  17,C  19,H  37)          121.5975         0.368605   
    144. A(O  55,H  20,C  56)           25.3800         0.095771   
    145. A(O  55,H  20,O  57)           44.7726         0.098041   
    146. A(C   5,H  20,O  55)          104.0260         0.124435   
    147. A(C  56,H  20,O  57)           22.5192         0.098945   
    148. A(C   5,H  20,C  56)          129.3915         0.127976   
    149. A(C   5,H  20,O  57)          144.9154         0.141042   
    150. A(C  11,H  24,O  57)          141.5434         0.123496   
    151. A(C  15,H  29,H  49)           81.8072         0.106799   
    152. A(O  44,H  32,H  53)           82.4248         0.101571   
    153. A(O   0,H  32,H  53)           77.1179         0.120347   
    154. A(O   0,H  32,O  44)          144.2160         0.180846   
    155. A(C  41,O  40,C  43)          109.7640         0.413765   
    156. A(H  39,C  41,O  40)          109.1875         0.335555   
    157. A(C  42,C  41,H  47)          111.7368         0.325613   
    158. A(O  40,C  41,H  47)          109.2155         0.335939   
    159. A(H  39,C  41,H  47)          111.2287         0.291314   
    160. A(O  40,C  41,C  42)          103.3183         0.377354   
    161. A(H  39,C  41,C  42)          111.8179         0.325245   
    162. A(O  45,C  42,F  46)          108.9723         0.406234   
    163. A(C  41,C  42,F  46)          110.8587         0.384878   
    164. A(H  38,C  42,F  46)          107.7996         0.342435   
    165. A(C  41,C  42,O  45)          103.8388         0.385238   
    166. A(H  38,C  42,O  45)          109.3416         0.342744   
    167. A(H  38,C  42,C  41)          115.8395         0.325662   
    168. A(O  44,C  43,O  45)          123.9689         0.478819   
    169. A(O  40,C  43,O  45)          110.2730         0.432222   
    170. A(O  40,C  43,O  44)          125.7578         0.487061   
    171. A(H  32,O  44,H  53)           57.2275         0.103774   
    172. A(C  43,O  44,H  53)          148.7944         0.140758   
    173. A(H  32,O  44,C  43)          141.3336         0.218046   
    174. A(C  42,O  45,C  43)          110.2204         0.415737   
    175. A(H  29,H  49,C  50)          148.1181         0.106696   
    176. A(C  15,H  49,H  29)           18.8277         0.091767   
    177. A(C  15,H  49,C  50)          141.8869         0.120554   
    178. A(C  52,C  50,O  54)          103.3925         0.377088   
    179. A(H  49,C  50,O  54)          109.0038         0.335271   
    180. A(H  48,C  50,O  54)          109.3320         0.335753   
    181. A(H  49,C  50,C  52)          112.1903         0.325091   
    182. A(H  48,C  50,C  52)          111.8083         0.325553   
    183. A(H  48,C  50,H  49)          110.8062         0.291217   
    184. A(H  53,C  52,O  55)          109.4780         0.342678   
    185. A(F  51,C  52,O  55)          108.8943         0.405593   
    186. A(C  50,C  52,O  55)          103.6055         0.385023   
    187. A(F  51,C  52,H  53)          108.2933         0.342118   
    188. A(C  50,C  52,H  53)          115.9626         0.325673   
    189. A(C  50,C  52,F  51)          110.3785         0.384370   
    190. A(H  32,H  53,O  44)           40.3477         0.094042   
    191. A(O   0,H  53,O  44)           59.3045         0.098147   
    192. A(O  44,H  53,C  52)          124.1702         0.123667   
    193. A(O   0,H  53,H  32)           20.9426         0.096784   
    194. A(H  32,H  53,C  52)          132.6054         0.118499   
    195. A(O   0,H  53,C  52)          137.6817         0.142517   
    196. A(C   8,H  53,O  44)           76.1927         0.094384   
    197. A(C   8,H  53,H  32)           36.0869         0.093582   
    198. A(O   0,H  53,C   8)           22.9679         0.097312   
    199. A(C   8,H  53,C  52)          116.2807         0.120501   
    200. A(C  50,O  54,C  56)          109.5456         0.412085   
    201. A(H  20,O  55,C  56)           74.4298         0.134492   
    202. A(H  20,O  55,C  52)          144.1403         0.133195   
    203. A(C  52,O  55,C  56)          110.3994         0.415603   
    204. A(H  20,C  56,O  57)           59.8657         0.147116   
    205. A(H  20,C  56,O  55)           80.1903         0.139038   
    206. A(H  20,C  56,O  54)          136.6609         0.139863   
    207. A(O  55,C  56,O  57)          124.1782         0.479456   
    208. A(O  54,C  56,O  57)          125.7311         0.485889   
    209. A(O  54,C  56,O  55)          110.0841         0.430725   
    210. A(H  20,O  57,H  24)           44.6559         0.097869   
    211. A(H  24,O  57,C  56)          126.3603         0.140829   
    212. A(H  20,O  57,C  56)           97.6151         0.166599   
    213. D(C   9,C   3,C   2,C   8)    -64.4780         0.012917   
    214. D(C   5,C   3,C   2,C   8)    115.9413         0.012917   
    215. D(C   9,C   3,C   2,C   7)    115.7340         0.012917   
    216. D(C   5,C   3,C   2,C   7)    -63.8468         0.012917   
    217. D(H  20,C   5,C   3,C   9)    179.1904         0.025620   
    218. D(C   3,C   5,C   4,C  10)     -1.4017         0.026311   
    219. D(H  20,C   5,C   4,C  11)     -1.6115         0.026311   
    220. D(H  20,C   5,C   3,C   2)     -1.2155         0.025620   
    221. D(C   4,C   5,C   3,C   2)   -179.0382         0.025620   
    222. D(H  20,C   5,C   4,C  10)   -179.2486         0.026311   
    223. D(C   4,C   5,C   3,C   9)      1.3677         0.025620   
    224. D(C   3,C   5,C   4,C  11)    176.2355         0.026311   
    225. D(C   6,C   7,C   2,C   3)   -179.1062         0.025578   
    226. D(C   6,C   7,C   2,C   8)      1.0983         0.025578   
    227. D(H  21,C   7,C   2,C   3)      0.2479         0.025578   
    228. D(C   2,C   7,C   6,C  12)    178.7647         0.026453   
    229. D(C   2,C   7,C   6,C  13)     -0.2479         0.026453   
    230. D(H  21,C   7,C   6,C  13)   -179.5963         0.026453   
    231. D(H  21,C   7,C   2,C   8)   -179.5476         0.025578   
    232. D(H  21,C   7,C   6,C  12)     -0.5836         0.026453   
    233. D(O   0,C   8,C   2,C   7)    177.4644         0.025951   
    234. D(C  15,C   8,C   2,C   7)     -1.3215         0.025951   
    235. D(C  15,C   8,O   0,H  32)    173.1289         0.033410   
    236. D(H  53,C   8,O   0,H  32)     88.6985         0.033410   
    237. D(C  15,C   8,C   2,C   3)    178.8864         0.025951   
    238. D(H  53,C   8,C   2,C   3)    -58.2775         0.025951   
    239. D(O   0,C   8,C   2,C   3)     -2.3277         0.025951   
    240. D(C  15,C   8,O   0,H  53)     84.4304         0.033410   
    241. D(C   2,C   8,O   0,H  53)    -94.3934         0.033410   
    242. D(C   2,C   8,O   0,H  32)     -5.6949         0.033410   
    243. D(C  14,C   9,C   3,C   2)   -179.5638         0.025636   
    244. D(H  22,C   9,C   3,C   2)     -0.5432         0.025636   
    245. D(C  14,C   9,C   3,C   5)      0.0272         0.025636   
    246. D(H  22,C   9,C   3,C   5)    179.0479         0.025636   
    247. D(O   1,C  10,C   4,C  11)     -0.0717         0.024654   
    248. D(O   1,C  10,C   4,C   5)    177.5366         0.024654   
    249. D(C  14,C  10,C   4,C  11)   -177.5595         0.024654   
    250. D(C  14,C  10,O   1,H  33)   -157.8649         0.027944   
    251. D(C   4,C  10,O   1,H  33)     24.5636         0.027944   
    252. D(C  14,C  10,C   4,C   5)      0.0488         0.024654   
    253. D(H  23,C  11,C   4,C  10)     62.9422         0.011503   
    254. D(H  23,C  11,C   4,C   5)   -114.6055         0.011503   
    255. D(C  16,C  11,C   4,C   5)    122.2892         0.011503   
    256. D(C  16,C  11,C   4,C  10)    -60.1631         0.011503   
    257. D(H  24,C  11,C   4,C   5)      0.9326         0.011503   
    258. D(H  25,C  12,C   6,C  13)    112.6320         0.011364   
    259. D(C  17,C  12,C   6,C  13)   -124.6099         0.011364   
    260. D(H  26,C  12,C   6,C   7)    177.7152         0.011364   
    261. D(H  25,C  12,C   6,C   7)    -66.3439         0.011364   
    262. D(C  17,C  12,C   6,C   7)     56.4142         0.011364   
    263. D(H  27,C  13,C   6,C  12)      0.4197         0.026156   
    264. D(C  15,C  13,C   6,C   7)     -0.3860         0.026156   
    265. D(H  27,C  13,C   6,C   7)    179.4278         0.026156   
    266. D(C  15,C  13,C   6,C  12)   -179.3941         0.026156   
    267. D(H  28,C  14,C  10,C   4)   -178.5274         0.026933   
    268. D(C   9,C  14,C  10,C   4)      1.2960         0.026933   
    269. D(C   9,C  14,C  10,O   1)   -176.3170         0.026933   
    270. D(H  28,C  14,C   9,H  22)     -0.5378         0.027574   
    271. D(H  28,C  14,C  10,O   1)      3.8596         0.026933   
    272. D(H  28,C  14,C   9,C   3)    178.4854         0.027574   
    273. D(C  10,C  14,C   9,H  22)    179.6421         0.027574   
    274. D(C  10,C  14,C   9,C   3)     -1.3347         0.027574   
    275. D(C  13,C  15,C   8,O   0)   -178.1385         0.030410   
    276. D(H  49,C  15,C  13,C   6)    -94.7217         0.030023   
    277. D(H  29,C  15,C  13,H  27)      0.4287         0.030023   
    278. D(H  29,C  15,C  13,C   6)   -179.7567         0.030023   
    279. D(C   8,C  15,C  13,H  27)   -179.6756         0.030023   
    280. D(C   8,C  15,C  13,C   6)      0.1390         0.030023   
    281. D(H  29,C  15,C   8,H  53)     52.3845         0.030410   
    282. D(H  29,C  15,C   8,C   2)   -179.3645         0.030410   
    283. D(H  29,C  15,C   8,O   0)      1.7598         0.030410   
    284. D(C  13,C  15,C   8,H  53)   -127.5138         0.030410   
    285. D(C  13,C  15,C   8,C   2)      0.7372         0.030410   
    286. D(H  30,C  16,C  11,H  23)   -178.3043         0.012332   
    287. D(H  30,C  16,C  11,C   4)    -54.8293         0.012332   
    288. D(C  18,C  16,C  11,H  24)   -114.6991         0.012332   
    289. D(C  18,C  16,C  11,H  23)      1.3350         0.012332   
    290. D(C  18,C  16,C  11,C   4)    124.8100         0.012332   
    291. D(C  19,C  17,C  12,C   6)   -123.4756         0.012540   
    292. D(H  31,C  17,C  12,C   6)     56.1243         0.012540   
    293. D(C  19,C  17,C  12,H  26)    115.6488         0.012540   
    294. D(C  19,C  17,C  12,H  25)     -0.1507         0.012540   
    295. D(H  31,C  17,C  12,H  25)    179.4492         0.012540   
    296. D(H  34,C  18,C  16,C  11)    179.4870         0.043377   
    297. D(H  35,C  18,C  16,C  11)      1.1953         0.043377   
    298. D(H  35,C  18,C  16,H  30)   -179.1769         0.043377   
    299. D(H  34,C  18,C  16,H  30)     -0.8852         0.043377   
    300. D(H  37,C  19,C  17,H  31)   -179.4943         0.044446   
    301. D(H  36,C  19,C  17,C  12)   -179.7198         0.044446   
    302. D(H  36,C  19,C  17,H  31)      0.6936         0.044446   
    303. D(H  37,C  19,C  17,C  12)      0.0922         0.044446   
    304. D(O  55,H  20,C   5,C   3)    -78.4836         0.140205   
    305. D(C  56,H  20,C   5,C   4)    100.4095         0.140205   
    306. D(C  56,H  20,C   5,C   3)    -77.5075         0.140205   
    307. D(O  57,H  20,C   5,C   4)     75.9806         0.140205   
    308. D(O  57,H  20,C   5,C   3)   -101.9363         0.140205   
    309. D(O  57,H  24,C  11,H  23)     69.6043         0.118420   
    310. D(O  57,H  24,C  11,C  16)   -172.4908         0.118420   
    311. D(O  57,H  24,C  11,C   4)    -48.3066         0.118420   
    312. D(H  49,H  29,C  15,C  13)     98.3651         0.129232   
    313. D(H  49,H  29,C  15,C   8)    -81.5327         0.129232   
    314. D(H  53,H  32,O   0,C   8)   -106.0180         0.348989   
    315. D(O  44,H  32,O   0,C   8)   -162.7497         0.348989   
    316. D(O  44,H  32,O   0,H  53)    -56.7317         0.348989   
    317. D(H  47,C  41,O  40,C  43)   -132.0585         0.017814   
    318. D(C  42,C  41,O  40,C  43)    -13.0105         0.017814   
    319. D(H  39,C  41,O  40,C  43)    106.1184         0.017814   
    320. D(O  45,C  42,C  41,H  47)    133.0769         0.011477   
    321. D(O  45,C  42,C  41,O  40)     15.7872         0.011477   
    322. D(O  45,C  42,C  41,H  39)   -101.5080         0.011477   
    323. D(H  38,C  42,C  41,O  40)    135.6741         0.011477   
    324. D(H  38,C  42,C  41,H  39)     18.3789         0.011477   
    325. D(H  38,C  42,C  41,H  47)   -107.0362         0.011477   
    326. D(O  45,C  43,O  40,C  41)      5.1326         0.032867   
    327. D(O  44,C  43,O  40,C  41)   -174.6713         0.032867   
    328. D(H  53,O  44,C  43,O  45)      2.9668         0.130332   
    329. D(H  53,O  44,C  43,O  40)   -177.2549         0.130332   
    330. D(H  32,O  44,C  43,O  45)   -110.0408         0.130332   
    331. D(H  32,O  44,C  43,O  40)     69.7375         0.130332   
    332. D(H  53,O  44,H  32,O   0)     55.3100         0.001545   
    333. D(C  43,O  44,H  32,H  53)    145.4465         0.001545   
    334. D(C  43,O  44,H  32,O   0)   -159.2435         0.001545   
    335. D(C  42,O  45,C  43,O  44)   -174.1360         0.026931   
    336. D(C  42,O  45,C  43,O  40)      6.0558         0.026931   
    337. D(C  43,O  45,C  42,F  46)    104.5237         0.022791   
    338. D(C  43,O  45,C  42,C  41)    -13.6707         0.022791   
    339. D(C  43,O  45,C  42,H  38)   -137.8788         0.022791   
    340. D(C  50,H  49,H  29,C  15)     84.3067         0.001500   
    341. D(H  29,H  49,C  15,C  13)   -119.6929         0.001500   
    342. D(H  29,H  49,C  15,C   8)    119.4807         0.001500   
    343. D(C  50,H  49,C  15,H  29)   -121.6238         0.001500   
    344. D(C  50,H  49,C  15,C  13)    118.6834         0.001500   
    345. D(C  50,H  49,C  15,C   8)     -2.1430         0.001500   
    346. D(O  54,C  50,H  49,H  29)   -114.5463         0.132425   
    347. D(C  52,C  50,H  49,C  15)     30.6996         0.132425   
    348. D(C  52,C  50,H  49,H  29)     -0.6522         0.132425   
    349. D(H  48,C  50,H  49,C  15)    156.4464         0.132425   
    350. D(H  48,C  50,H  49,H  29)    125.0946         0.132425   
    351. D(H  53,C  52,C  50,O  54)    136.8900         0.011457   
    352. D(H  53,C  52,C  50,H  49)     19.5914         0.011457   
    353. D(H  53,C  52,C  50,H  48)   -105.6068         0.011457   
    354. D(F  51,C  52,C  50,O  54)    -99.5163         0.011457   
    355. D(F  51,C  52,C  50,H  49)    143.1852         0.011457   
    356. D(F  51,C  52,C  50,H  48)     17.9870         0.011457   
    357. D(O  44,H  53,C  52,O  55)    -37.4169         0.175502   
    358. D(O  44,H  53,C  52,F  51)     81.1828         0.175502   
    359. D(O  44,H  53,C  52,C  50)   -154.1440         0.175502   
    360. D(H  32,H  53,C  52,O  55)     13.7425         0.175502   
    361. D(H  32,H  53,C  52,F  51)    132.3423         0.175502   
    362. D(H  32,H  53,C  52,C  50)   -102.9845         0.175502   
    363. D(O   0,H  53,C  52,F  51)    161.3443         0.175502   
    364. D(O   0,H  53,C  52,C  50)    -73.9825         0.175502   
    365. D(C   8,H  53,O  44,H  32)      5.0905         0.001500   
    366. D(H  32,H  53,O  44,C  43)   -136.8468         0.001500   
    367. D(O   0,H  53,O  44,H  32)    -11.8301         0.001500   
    368. D(O   0,H  53,O  44,C  43)   -148.6769         0.001500   
    369. D(C  52,H  53,O  44,C  43)    -19.1595         0.001500   
    370. D(C   8,H  53,H  32,O  44)   -171.5882         0.001501   
    371. D(C   8,H  53,H  32,O   0)     37.9633         0.001501   
    372. D(O  44,H  53,H  32,O   0)   -150.4486         0.001501   
    373. D(O   0,H  53,H  32,O  44)    150.4486         0.001501   
    374. D(C  52,H  53,H  32,O  44)    -95.5072         0.001501   
    375. D(C  52,H  53,H  32,O   0)    114.0442         0.001501   
    376. D(O  44,H  53,C   8,O   0)    -39.8934         0.001500   
    377. D(H  32,H  53,C   8,C  15)   -148.0550         0.001500   
    378. D(C  52,H  53,O  44,H  32)    117.6873         0.001500   
    379. D(H  32,H  53,C   8,C   2)     80.4098         0.001500   
    380. D(H  32,H  53,C   8,O   0)    -34.2965         0.001500   
    381. D(O   0,H  53,C   8,C  15)   -113.7585         0.001500   
    382. D(C   8,H  53,O  44,C  43)   -131.7563         0.001500   
    383. D(O   0,H  53,C   8,C   2)    114.7063         0.001500   
    384. D(C  52,H  53,C   8,C  15)     84.7687         0.001500   
    385. D(C  52,H  53,C   8,C   2)    -46.7665         0.001500   
    386. D(O   0,H  53,C  52,O  55)     42.7446         0.175502   
    387. D(C  52,H  53,C   8,O   0)   -161.4728         0.001500   
    388. D(C   8,H  53,O   0,H  32)   -111.7903         0.001501   
    389. D(O  44,H  53,O   0,H  32)     21.7983         0.001501   
    390. D(O  44,H  53,O   0,C   8)    133.5886         0.001501   
    391. D(H  32,H  53,O   0,C   8)    111.7903         0.001501   
    392. D(C  52,H  53,O   0,H  32)    -86.7544         0.001501   
    393. D(C  52,H  53,O   0,C   8)     25.0359         0.001501   
    394. D(C  56,O  54,C  50,C  52)    -14.0788         0.017701   
    395. D(C  56,O  54,C  50,H  49)    105.4343         0.017701   
    396. D(C  56,O  54,C  50,H  48)   -133.3035         0.017701   
    397. D(H  20,O  55,C  52,H  53)    -47.3544         0.026457   
    398. D(H  20,O  55,C  52,F  51)   -165.5805         0.026457   
    399. D(H  20,O  55,C  52,C  50)     76.9346         0.026457   
    400. D(C  56,O  55,C  52,H  53)   -138.8233         0.026457   
    401. D(C  56,O  55,C  52,F  51)    102.9507         0.026457   
    402. D(C  56,O  55,C  52,C  50)    -14.5343         0.026457   
    403. D(C  56,O  55,H  20,O  57)    -20.7141         0.001500   
    404. D(C  56,O  55,H  20,C   5)    178.2398         0.001500   
    405. D(C  52,O  55,H  20,C  56)   -103.4256         0.001500   
    406. D(C  52,O  55,H  20,O  57)   -124.1397         0.001500   
    407. D(C  52,O  55,H  20,C   5)     74.8143         0.001500   
    408. D(H  20,C  56,O  55,C  52)    142.5607         0.034779   
    409. D(O  57,C  56,O  55,H  20)     42.8408         0.034779   
    410. D(O  54,C  56,O  55,H  20)   -136.2751         0.034779   
    411. D(O  54,C  56,O  55,C  52)      6.2856         0.034779   
    412. D(H  20,C  56,O  54,C  50)    -91.3705         0.034771   
    413. D(O  57,C  56,O  54,C  50)   -173.3957         0.034771   
    414. D(O  55,C  56,O  54,C  50)      5.7034         0.034771   
    415. D(O  57,C  56,H  20,C   5)   -141.6354         0.001500   
    416. D(O  55,C  56,H  20,O  57)    139.4255         0.001500   
    417. D(O  55,C  56,H  20,C   5)     -2.2099         0.001500   
    418. D(O  57,C  56,O  55,C  52)   -174.5984         0.034779   
    419. D(O  54,C  56,H  20,O  55)    108.9381         0.001500   
    420. D(O  54,C  56,H  20,O  57)   -111.6364         0.001500   
    421. D(O  54,C  56,H  20,C   5)    106.7282         0.001500   
    422. D(H  24,O  57,C  56,H  20)     37.5566         0.144446   
    423. D(H  24,O  57,C  56,O  55)    -13.2235         0.144446   
    424. D(H  20,O  57,C  56,O  55)    -50.7801         0.144446   
    425. D(H  20,O  57,C  56,O  54)    128.1970         0.144446   
    426. D(H  20,O  57,H  24,C  11)     61.5459         0.001500   
    427. D(C  56,O  57,H  24,C  11)      2.2739         0.001500   
    428. D(H  24,O  57,H  20,O  55)   -112.3826         0.001501   
    429. D(H  24,O  57,H  20,C  56)   -135.7011         0.001501   
    430. D(H  24,O  57,C  56,O  54)    165.7536         0.144446   
    431. D(H  24,O  57,H  20,C   5)    -79.1359         0.001501   
    432. D(C  56,O  57,H  20,O  55)     23.3185         0.001501   
    433. D(C  56,O  57,H  20,C   5)     56.5652         0.001501   
    -----------------------------------------------------------------

Number of atoms                         .... 58
Number of degrees of freedom            .... 433


         *************************************************************
         *                GEOMETRY OPTIMIZATION CYCLE   1            *
         *************************************************************
---------------------------------
CARTESIAN COORDINATES (ANGSTROEM)
---------------------------------
  O      1.661257    1.864626    2.158405
  O     -3.640726   -1.528693    2.041513
  C      1.479984    0.212350    0.365993
  C      0.134151   -0.260815    0.791139
  C     -2.259668   -0.478831    0.336827
  C     -0.979288   -0.069503   -0.030468
  C      3.356241    0.051121   -1.200278
  C      2.091863   -0.336889   -0.763573
  C      2.168237    1.214556    1.072055
  C     -0.054084   -0.913558    2.011652
  C     -2.411553   -1.131222    1.568323
  C     -3.448819   -0.172588   -0.552097
  C      3.993120   -0.593567   -2.417691
  C      4.020794    1.034288   -0.468361
  C     -1.313071   -1.356954    2.390435
  C      3.437634    1.610437    0.650772
  C     -4.211072   -1.394417   -0.992804
  C      3.154833   -0.493476   -3.661978
  C     -5.514788   -1.591611   -0.814059
  C      2.749462   -1.523704   -4.394668
  H     -0.858870    0.446241   -0.975922
  H      1.557606   -1.104352   -1.312032
  H      0.792565   -1.090450    2.663488
  H     -4.131237    0.515732   -0.041191
  H     -3.078083    0.358270   -1.432468
  H      4.209966   -1.647621   -2.215769
  H      4.958398   -0.108406   -2.597545
  H      5.010778    1.354210   -0.773985
  H     -1.457395   -1.884556    3.324593
  H      3.952892    2.376911    1.216547
  H     -3.623067   -2.162705   -1.488796
  H      2.868468    0.513197   -3.956575
  H      0.739257    1.629798    2.346950
  H     -4.251090   -1.652604    1.298140
  H     -6.005816   -2.491359   -1.162836
  H     -6.142674   -0.846204   -0.335785
  H      2.149375   -1.385517   -5.285453
  H      3.006062   -2.544525   -4.131352
  H     -4.992722    1.074172    3.425134
  H     -3.588905   -0.501012    4.621960
  O     -2.111226    0.929456    4.827415
  C     -3.481196    0.527296    4.965530
  C     -4.227619    1.507127    4.065139
  C     -1.987905    1.772492    3.789534
  O     -0.965374    2.208996    3.366133
  O     -3.218295    2.066604    3.268991
  F     -4.816190    2.505253    4.808581
  H     -3.780720    0.628227    6.006244
  H      1.172733    5.903923   -0.840461
  H      2.026375    4.346477   -0.597007
  C      1.057357    4.828233   -0.727891
  F     -0.699097    5.567242    0.708382
  C      0.082933    4.476768    0.392674
  H      0.528324    4.099329    1.309701
  O      0.423808    4.293143   -1.899374
  O     -0.729403    3.484543   -0.175605
  C     -0.567004    3.455292   -1.533454
  O     -1.203955    2.771897   -2.267121

----------------------------
CARTESIAN COORDINATES (A.U.)
----------------------------
  NO LB      ZA    FRAG     MASS         X           Y           Z
   0 O     8.0000    0    15.999    3.139321    3.523633    4.078794
   1 O     8.0000    0    15.999   -6.879976   -2.888810    3.857900
   2 C     6.0000    0    12.011    2.796764    0.401284    0.691627
   3 C     6.0000    0    12.011    0.253508   -0.492869    1.495036
   4 C     6.0000    0    12.011   -4.270155   -0.904859    0.636511
   5 C     6.0000    0    12.011   -1.850586   -0.131342   -0.057577
   6 C     6.0000    0    12.011    6.342377    0.096606   -2.268197
   7 C     6.0000    0    12.011    3.953049   -0.636627   -1.442944
   8 C     6.0000    0    12.011    4.097373    2.295178    2.025889
   9 C     6.0000    0    12.011   -0.102203   -1.726374    3.801472
  10 C     6.0000    0    12.011   -4.557174   -2.137699    2.963701
  11 C     6.0000    0    12.011   -6.517324   -0.326144   -1.043312
  12 C     6.0000    0    12.011    7.545903   -1.121680   -4.568774
  13 C     6.0000    0    12.011    7.598200    1.954520   -0.885073
  14 C     6.0000    0    12.011   -2.481344   -2.564271    4.517267
  15 C     6.0000    0    12.011    6.496187    3.043286    1.229780
  16 C     6.0000    0    12.011   -7.957773   -2.635067   -1.876127
  17 C     6.0000    0    12.011    5.961771   -0.932535   -6.920135
  18 C     6.0000    0    12.011  -10.421439   -3.007709   -1.538349
  19 C     6.0000    0    12.011    5.195730   -2.879384   -8.304719
  20 H     1.0000    0     1.008   -1.623030    0.843274   -1.844225
  21 H     1.0000    0     1.008    2.943449   -2.086923   -2.479381
  22 H     1.0000    0     1.008    1.497731   -2.060651    5.033263
  23 H     1.0000    0     1.008   -7.806907    0.974593   -0.077839
  24 H     1.0000    0     1.008   -5.816734    0.677033   -2.706972
  25 H     1.0000    0     1.008    7.955683   -3.113553   -4.187197
  26 H     1.0000    0     1.008    9.370013   -0.204857   -4.908648
  27 H     1.0000    0     1.008    9.468998    2.559085   -1.462621
  28 H     1.0000    0     1.008   -2.754078   -3.561294    6.282571
  29 H     1.0000    0     1.008    7.469883    4.491710    2.298941
  30 H     1.0000    0     1.008   -6.846604   -4.086920   -2.813416
  31 H     1.0000    0     1.008    5.420619    0.969801   -7.476844
  32 H     1.0000    0     1.008    1.396993    3.079872    4.435094
  33 H     1.0000    0     1.008   -8.033395   -3.122969    2.453128
  34 H     1.0000    0     1.008  -11.349347   -4.707985   -2.197441
  35 H     1.0000    0     1.008  -11.607972   -1.599094   -0.634541
  36 H     1.0000    0     1.008    4.061731   -2.618248   -9.988059
  37 H     1.0000    0     1.008    5.680634   -4.808455   -7.807124
  38 H     1.0000    0     1.008   -9.434877    2.029892    6.472564
  39 H     1.0000    0     1.008   -6.782048   -0.946775    8.734238
  40 O     8.0000    0    15.999   -3.989639    1.756417    9.122491
  41 C     6.0000    0    12.011   -6.578507    0.996445    9.383492
  42 C     6.0000    0    12.011   -7.989042    2.848058    7.682000
  43 C     6.0000    0    12.011   -3.756596    3.349524    7.161182
  44 O     8.0000    0    15.999   -1.824292    4.174397    6.361070
  45 O     8.0000    0    15.999   -6.081695    3.905316    6.177498
  46 F     9.0000    0    18.998   -9.101280    4.734242    9.086902
  47 H     1.0000    0     1.008   -7.144526    1.187177   11.350156
  48 H     1.0000    0     1.008    2.216144   11.156797   -1.588241
  49 H     1.0000    0     1.008    3.829294    8.213651   -1.128179
  50 C     6.0000    0    12.011    1.998115    9.124038   -1.375515
  51 F     9.0000    0    18.998   -1.321102   10.520562    1.338647
  52 C     6.0000    0    12.011    0.156721    8.459866    0.742046
  53 H     1.0000    0     1.008    0.998388    7.746609    2.474976
  54 O     8.0000    0    15.999    0.800882    8.112865   -3.589297
  55 O     8.0000    0    15.999   -1.378371    6.584831   -0.331846
  56 C     6.0000    0    12.011   -1.071483    6.529556   -2.897808
  57 O     8.0000    0    15.999   -2.275146    5.238126   -4.284237

--------------------------------
INTERNAL COORDINATES (ANGSTROEM)
--------------------------------
 O      0   0   0     0.000000000000     0.00000000     0.00000000
 O      1   0   0     6.295975154841     0.00000000     0.00000000
 C      1   2   0     2.444507088077    63.87339958     0.00000000
 C      3   1   2     1.488590342504    94.15614676   359.93352692
 C      2   1   3     2.432176761680    45.74798550   319.27121539
 C      5   2   1     1.393495440199   146.43611197    29.18906605
 C      3   1   2     2.449396436457   117.16533746   179.65866226
 C      7   3   1     1.392808242915    28.65380569   182.01449807
 C      1   2   3     1.363736267366    92.37041751   359.08354544
 C      4   3   1     1.396838723180   121.32697313   294.44167424
 C      2   1   3     1.375776183718    25.61604078   357.31927132
 C      5   2   1     1.515931940135    93.02488029   213.06795302
 C      7   3   1     1.517673504420   149.58159634   179.92154500
 C      7   3   1     1.394255873387    89.02647982     1.79491890
 C     10   4   3     1.387488827336   120.67369319   180.43618590
 C     14   7   3     1.387256574822   121.06363458   359.49509102
 C     12   5   2     1.506027721255   113.87420717   299.80257325
 C     13   7   3     1.503659254627   113.67602592    57.58407608
 C     17  12   5     1.330605031380   125.22784704   124.80997065
 C     18  13   7     1.327603913443   125.11809260   236.52444441
 H      6   5   2     1.083685782581   118.15460716   182.88314940
 H      8   7   3     1.084083888221   119.07585850   180.65166235
 H     10   4   3     1.083048609852   119.79241847   359.45683300
 H     12   5   2     1.095675595134   110.00181790    62.90783478
 H     12   5   2     1.092844549851   107.72210422   178.44592830
 H     13   7   3     1.094908311436   110.12771622   294.82600931
 H     13   7   3     1.095212045144   108.26486529   178.88506157
 H     14   7   3     1.084354188216   119.68573567   179.30892814
 H     15  10   4     1.082518144074   120.81789897   178.48540489
 H     16  14   7     1.083085304188   121.02001557   180.24334385
 H     17  12   5     1.087209492267   115.66254768   305.17074396
 H     18  13   7     1.087282500553   115.63736590    56.12431477
 H      1   2   3     0.969937255024    21.96984503   160.57809571
 H      2   1   3     0.969794320779   127.81440701   306.82229340
 H     19  17  12     1.082727467954   121.61616434   179.48702002
 H     19  17  12     1.085642352491   121.60720517     1.19528113
 H     20  18  13     1.082911429453   121.61125913   180.28019747
 H     20  18  13     1.085012814455   121.59745968     0.09223967
 H      2   1   3     3.243023978056    84.86962044   208.61113808
 H     39   2   1     2.425757518964    56.49982811   283.64155143
 O     40  39   2     2.066878212275    90.76608266   111.61979828
 C     40  39   2     1.089522013603    66.41688838   145.52465869
 C     39   2   1     1.087400644444   106.10153731   325.99127362
 C     41  40  39     1.342800438908   115.04534034   324.94204180
 O     44  41  40     1.189694798397   125.75775574   217.19362498
 O     44  41  40     1.367964414754   110.27303595    36.99758702
 F     43  39   2     1.376727057518   107.79961452   188.06784398
 H     42  40  39     1.087652282719   111.22865652   117.71639367
 H     30  16  14     4.939674280969    91.14658803   102.59827835
 H     49  30  16     1.792655305980    19.10926932   335.75497238
 C     49  30  16     1.087700490940    46.40709929    19.52709527
 F     51  49  30     2.386240662796    80.45014570   112.24365247
 C     52  51  49     1.378540754246    36.83248788   196.90161959
 H     53  52  51     1.087093708993   108.29331482   127.92833391
 O     51  49  30     1.435297095699   109.33200730   216.35635102
 O     53  52  51     1.402619855570   108.89429930   246.89776851
 C     55  51  49     1.348184926542   109.54562272   226.69651744
 O     57  55  51     1.187856094536   125.73114540   186.60433749

---------------------------
INTERNAL COORDINATES (A.U.)
---------------------------
 O      0   0   0     0.000000000000     0.00000000     0.00000000
 O      1   0   0    11.897668788622     0.00000000     0.00000000
 C      1   2   0     4.619448928895    63.87339958     0.00000000
 C      3   1   2     2.813028072932    94.15614676   359.93352692
 C      2   1   3     4.596147988863    45.74798550   319.27121539
 C      5   2   1     2.633324750845   146.43611197    29.18906605
 C      3   1   2     4.628688458307   117.16533746   179.65866226
 C      7   3   1     2.632026136178    28.65380569   182.01449807
 C      1   2   3     2.577088064218    92.37041751   359.08354544
 C      4   3   1     2.639642640067   121.32697313   294.44167424
 C      2   1   3     2.599840208798    25.61604078   357.31927132
 C      5   2   1     2.864696204520    93.02488029   213.06795302
 C      7   3   1     2.867987284063   149.58159634   179.92154500
 C      7   3   1     2.634761761313    89.02647982     1.79491890
 C     10   4   3     2.621973897540   120.67369319   180.43618590
 C     14   7   3     2.621535003896   121.06363458   359.49509102
 C     12   5   2     2.845979943266   113.87420717   299.80257325
 C     13   7   3     2.841504189980   113.67602592    57.58407608
 C     17  12   5     2.514479101726   125.22784704   124.80997065
 C     18  13   7     2.508807810730   125.11809260   236.52444441
 H      6   5   2     2.047869344302   118.15460716   182.88314940
 H      8   7   3     2.048621654933   119.07585850   180.65166235
 H     10   4   3     2.046665262345   119.79241847   359.45683300
 H     12   5   2     2.070526806424   110.00181790    62.90783478
 H     12   5   2     2.065176906167   107.72210422   178.44592830
 H     13   7   3     2.069076850369   110.12771622   294.82600931
 H     13   7   3     2.069650823893   108.26486529   178.88506157
 H     14   7   3     2.049132447899   119.68573567   179.30892814
 H     15  10   4     2.045662827300   120.81789897   178.48540489
 H     16  14   7     2.046734604589   121.02001557   180.24334385
 H     17  12   5     2.054528190584   115.66254768   305.17074396
 H     18  13   7     2.054666156250   115.63736590    56.12431477
 H      1   2   3     1.832915779083    21.96984503   160.57809571
 H      2   1   3     1.832645672505   127.81440701   306.82229340
 H     19  17  12     2.046058392107   121.61616434   179.48702002
 H     19  17  12     2.051566725594   121.60720517     1.19528113
 H     20  18  13     2.046406028960   121.61125913   180.28019747
 H     20  18  13     2.050377071115   121.59745968     0.09223967
 H      2   1   3     6.128427164265    84.86962044   208.61113808
 H     39   2   1     4.584017378142    56.49982811   283.64155143
 O     40  39   2     3.905833773369    90.76608266   111.61979828
 C     40  39   2     2.058898222588    66.41688838   145.52465869
 C     39   2   1     2.054889415849   106.10153731   325.99127362
 C     41  40  39     2.537525082045   115.04534034   324.94204180
 O     44  41  40     2.248197351920   125.75775574   217.19362498
 O     44  41  40     2.585078104835   110.27303595    36.99758702
 F     43  39   2     2.601637099869   107.79961452   188.06784398
 H     42  40  39     2.055364943273   111.22865652   117.71639367
 H     30  16  14     9.334631581806    91.14658803   102.59827835
 H     49  30  16     3.387627580822    19.10926932   335.75497238
 C     49  30  16     2.055456043609    46.40709929    19.52709527
 F     51  49  30     4.509341342312    80.45014570   112.24365247
 C     52  51  49     2.605064489974    36.83248788   196.90161959
 H     53  52  51     2.054309391906   108.29331482   127.92833391
 O     51  49  30     2.712318431683   109.33200730   216.35635102
 O     53  52  51     2.650567397027   108.89429930   246.89776851
 C     55  51  49     2.547700289044   109.54562272   226.69651744
 O     57  55  51     2.244722705182   125.73114540   186.60433749

---------------------
BASIS SET INFORMATION
---------------------
There are 4 groups of distinct atoms

 Group   1 Type O   : 11s6p2d1f contracted to 5s3p2d1f pattern {62111/411/11/1}
 Group   2 Type C   : 11s6p2d1f contracted to 5s3p2d1f pattern {62111/411/11/1}
 Group   3 Type H   : 5s1p contracted to 3s1p pattern {311/1}
 Group   4 Type F   : 11s6p2d1f contracted to 5s3p2d1f pattern {62111/411/11/1}

Atom   0O    basis set group =>   1
Atom   1O    basis set group =>   1
Atom   2C    basis set group =>   2
Atom   3C    basis set group =>   2
Atom   4C    basis set group =>   2
Atom   5C    basis set group =>   2
Atom   6C    basis set group =>   2
Atom   7C    basis set group =>   2
Atom   8C    basis set group =>   2
Atom   9C    basis set group =>   2
Atom  10C    basis set group =>   2
Atom  11C    basis set group =>   2
Atom  12C    basis set group =>   2
Atom  13C    basis set group =>   2
Atom  14C    basis set group =>   2
Atom  15C    basis set group =>   2
Atom  16C    basis set group =>   2
Atom  17C    basis set group =>   2
Atom  18C    basis set group =>   2
Atom  19C    basis set group =>   2
Atom  20H    basis set group =>   3
Atom  21H    basis set group =>   3
Atom  22H    basis set group =>   3
Atom  23H    basis set group =>   3
Atom  24H    basis set group =>   3
Atom  25H    basis set group =>   3
Atom  26H    basis set group =>   3
Atom  27H    basis set group =>   3
Atom  28H    basis set group =>   3
Atom  29H    basis set group =>   3
Atom  30H    basis set group =>   3
Atom  31H    basis set group =>   3
Atom  32H    basis set group =>   3
Atom  33H    basis set group =>   3
Atom  34H    basis set group =>   3
Atom  35H    basis set group =>   3
Atom  36H    basis set group =>   3
Atom  37H    basis set group =>   3
Atom  38H    basis set group =>   3
Atom  39H    basis set group =>   3
Atom  40O    basis set group =>   1
Atom  41C    basis set group =>   2
Atom  42C    basis set group =>   2
Atom  43C    basis set group =>   2
Atom  44O    basis set group =>   1
Atom  45O    basis set group =>   1
Atom  46F    basis set group =>   4
Atom  47H    basis set group =>   3
Atom  48H    basis set group =>   3
Atom  49H    basis set group =>   3
Atom  50C    basis set group =>   2
Atom  51F    basis set group =>   4
Atom  52C    basis set group =>   2
Atom  53H    basis set group =>   3
Atom  54O    basis set group =>   1
Atom  55O    basis set group =>   1
Atom  56C    basis set group =>   2
Atom  57O    basis set group =>   1
---------------------------------
AUXILIARY/J BASIS SET INFORMATION
---------------------------------
There are 4 groups of distinct atoms

 Group   1 Type O   : 12s5p4d2f1g contracted to 6s4p3d1f1g pattern {711111/2111/211/2/1}
 Group   2 Type C   : 12s5p4d2f1g contracted to 6s4p3d1f1g pattern {711111/2111/211/2/1}
 Group   3 Type H   : 5s2p1d contracted to 3s1p1d pattern {311/2/1}
 Group   4 Type F   : 12s5p4d2f1g contracted to 6s4p3d1f1g pattern {711111/2111/211/2/1}

Atom   0O    basis set group =>   1
Atom   1O    basis set group =>   1
Atom   2C    basis set group =>   2
Atom   3C    basis set group =>   2
Atom   4C    basis set group =>   2
Atom   5C    basis set group =>   2
Atom   6C    basis set group =>   2
Atom   7C    basis set group =>   2
Atom   8C    basis set group =>   2
Atom   9C    basis set group =>   2
Atom  10C    basis set group =>   2
Atom  11C    basis set group =>   2
Atom  12C    basis set group =>   2
Atom  13C    basis set group =>   2
Atom  14C    basis set group =>   2
Atom  15C    basis set group =>   2
Atom  16C    basis set group =>   2
Atom  17C    basis set group =>   2
Atom  18C    basis set group =>   2
Atom  19C    basis set group =>   2
Atom  20H    basis set group =>   3
Atom  21H    basis set group =>   3
Atom  22H    basis set group =>   3
Atom  23H    basis set group =>   3
Atom  24H    basis set group =>   3
Atom  25H    basis set group =>   3
Atom  26H    basis set group =>   3
Atom  27H    basis set group =>   3
Atom  28H    basis set group =>   3
Atom  29H    basis set group =>   3
Atom  30H    basis set group =>   3
Atom  31H    basis set group =>   3
Atom  32H    basis set group =>   3
Atom  33H    basis set group =>   3
Atom  34H    basis set group =>   3
Atom  35H    basis set group =>   3
Atom  36H    basis set group =>   3
Atom  37H    basis set group =>   3
Atom  38H    basis set group =>   3
Atom  39H    basis set group =>   3
Atom  40O    basis set group =>   1
Atom  41C    basis set group =>   2
Atom  42C    basis set group =>   2
Atom  43C    basis set group =>   2
Atom  44O    basis set group =>   1
Atom  45O    basis set group =>   1
Atom  46F    basis set group =>   4
Atom  47H    basis set group =>   3
Atom  48H    basis set group =>   3
Atom  49H    basis set group =>   3
Atom  50C    basis set group =>   2
Atom  51F    basis set group =>   4
Atom  52C    basis set group =>   2
Atom  53H    basis set group =>   3
Atom  54O    basis set group =>   1
Atom  55O    basis set group =>   1
Atom  56C    basis set group =>   2
Atom  57O    basis set group =>   1
--------------------------------------------------------------------------
WARNING: There was an error initializing an OpenFabrics device.

  Local host:   ga00
  Local device: mlx5_0
--------------------------------------------------------------------------


           ************************************************************
           *        Program running with 25 parallel MPI-processes    *
           *              working on a common directory               *
           ************************************************************
------------------------------------------------------------------------------
                             ORCA STARTUP CALCULATIONS
                           -- RI-GTO INTEGRALS CHOSEN --
------------------------------------------------------------------------------
------------------------------------------------------------------------------
                   ___                                                        
                  /   \      - P O W E R E D   B Y -                         
                 /     \                                                     
                 |  |  |   _    _      __       _____    __    __             
                 |  |  |  | |  | |    /  \     |  _  \  |  |  /  |          
                  \  \/   | |  | |   /    \    | | | |  |  | /  /          
                 / \  \   | |__| |  /  /\  \   | |_| |  |  |/  /          
                |  |  |   |  __  | /  /__\  \  |    /   |      \           
                |  |  |   | |  | | |   __   |  |    \   |  |\   \          
                \     /   | |  | | |  |  |  |  | |\  \  |  | \   \       
                 \___/    |_|  |_| |__|  |__|  |_| \__\ |__|  \__/        
                                                                              
                      - O R C A' S   B I G   F R I E N D -                    
                                      &                                       
                       - I N T E G R A L  F E E D E R -                       
                                                                              
 v1 FN, 2020, v2 2021, v3 2022-2024                                           
------------------------------------------------------------------------------


----------------------
SHARK INTEGRAL PACKAGE
----------------------

Number of atoms                             ...     58
Number of basis functions                   ...   1198
Number of shells                            ...    470
Maximum angular momentum                    ...      3
Integral batch strategy                     ... SHARK/LIBINT Hybrid
RI-J (if used) integral strategy            ... SPLIT-RIJ (Revised 2003 algorithm where possible)
Printlevel                                  ...      1
Contraction scheme used                     ... SEGMENTED contraction
Prescreening option                         ... SCHWARTZ
   Thresh                                   ... 2.500e-11
   Tcut                                     ... 2.500e-12
   Tpresel                                  ... 2.500e-12 
Coulomb Range Separation                    ... NOT USED
Exchange Range Separation                   ... NOT USED
Multipole approximations                    ... NOT USED
Finite Nucleus Model                        ... NOT USED
CABS basis                                  ... NOT available
Auxiliary Coulomb fitting basis             ... AVAILABLE
   # of basis functions in Aux-J            ...   1930
   # of shells in Aux-J                     ...    630
   Maximum angular momentum in Aux-J        ...      4
Auxiliary J/K fitting basis                 ... NOT available
Auxiliary Correlation fitting basis         ... NOT available
Auxiliary 'external' fitting basis          ... NOT available

Checking pre-screening integrals            ... done (  0.0 sec) Dimension = 470
Check shell pair data                       ... done (  0.0 sec)
Shell pair information
Shell pair cut-off parameter TPreSel        ...   2.5e-12
Total number of shell pairs                 ...    110685
Shell pairs after pre-screening             ...     64796
Total number of primitive shell pairs       ...    340720
Primitive shell pairs kept                  ...    125119
          la=0 lb=0:  16758 shell pairs
          la=1 lb=0:  19178 shell pairs
          la=1 lb=1:   5499 shell pairs
          la=2 lb=0:   8953 shell pairs
          la=2 lb=1:   5257 shell pairs
          la=2 lb=2:   1241 shell pairs
          la=3 lb=0:   4084 shell pairs
          la=3 lb=1:   2493 shell pairs
          la=3 lb=2:   1082 shell pairs
          la=3 lb=3:    251 shell pairs

Calculating one electron integrals          ... done (  0.1 sec)
Calculating RI/J V-Matrix + Cholesky decomp.... done (  0.2 sec)
Calculating Nuclear repulsion               ... done (  0.0 sec) ENN=   3718.086118910492 Eh

Diagonalization of the overlap matrix:
Smallest eigenvalue                        ... 5.030e-06
Time for diagonalization                   ...    0.242 sec
Threshold for overlap eigenvalues          ... 1.000e-07
Number of eigenvalues below threshold      ... 0
Time for construction of square roots      ...    0.109 sec
Total time needed                          ...    0.362 sec

-------------------
DFT GRID GENERATION
-------------------

General Integration Accuracy     IntAcc      ... 4.388
Radial Grid Type                 RadialGrid  ... OptM3 with GC (2021)
Angular Grid (max. ang.)         AngularGrid ... 4 (Lebedev-302)
Angular grid pruning method      GridPruning ... 4 (adaptive)
Weight generation scheme         WeightScheme... mBecke (2022)
Basis function cutoff            BFCut       ... 1.0000e-11
Integration weight cutoff        WCut        ... 1.0000e-14
Partially contracted basis set               ... off
Rotationally invariant grid construction     ... off
Angular grids for H and He will be reduced by one unit

Total number of grid points                  ...   279638
Total number of batches                      ...     4399
Average number of points per batch           ...       63
Average number of grid points per atom       ...     4821

--------------------
COSX GRID GENERATION
--------------------

GRIDX 1
-------
General Integration Accuracy     IntAcc      ... 3.816
Radial Grid Type                 RadialGrid  ... OptM3 with GC (2021)
Angular Grid (max. ang.)         AngularGrid ... 1 (Lebedev-50)
Angular grid pruning method      GridPruning ... 4 (adaptive)
Weight generation scheme         WeightScheme... mBecke (2022)
Basis function cutoff            BFCut       ... 1.0000e-11
Integration weight cutoff        WCut        ... 1.0000e-14
Partially contracted basis set               ... on
Rotationally invariant grid construction     ... off
Angular grids for H and He will be reduced by one unit

Total number of grid points                  ...    35369
Total number of batches                      ...      312
Average number of points per batch           ...      113
Average number of grid points per atom       ...      610
UseSFitting                                  ... on

GRIDX 2
-------
General Integration Accuracy     IntAcc      ... 4.020
Radial Grid Type                 RadialGrid  ... OptM3 with GC (2021)
Angular Grid (max. ang.)         AngularGrid ... 2 (Lebedev-110)
Angular grid pruning method      GridPruning ... 4 (adaptive)
Weight generation scheme         WeightScheme... mBecke (2022)
Basis function cutoff            BFCut       ... 1.0000e-11
Integration weight cutoff        WCut        ... 1.0000e-14
Partially contracted basis set               ... on
Rotationally invariant grid construction     ... off
Angular grids for H and He will be reduced by one unit

Total number of grid points                  ...    76882
Total number of batches                      ...      633
Average number of points per batch           ...      121
Average number of grid points per atom       ...     1326
UseSFitting                                  ... on

GRIDX 3
-------
General Integration Accuracy     IntAcc      ... 4.338
Radial Grid Type                 RadialGrid  ... OptM3 with GC (2021)
Angular Grid (max. ang.)         AngularGrid ... 3 (Lebedev-194)
Angular grid pruning method      GridPruning ... 4 (adaptive)
Weight generation scheme         WeightScheme... mBecke (2022)
Basis function cutoff            BFCut       ... 1.0000e-11
Integration weight cutoff        WCut        ... 1.0000e-14
Partially contracted basis set               ... on
Rotationally invariant grid construction     ... off
Angular grids for H and He will be reduced by one unit

Total number of grid points                  ...   167968
Total number of batches                      ...     1340
Average number of points per batch           ...      125
Average number of grid points per atom       ...     2896
UseSFitting                                  ... on
Initializing property integral containers    ... done (  0.0 sec)

SHARK setup successfully completed in   4.5 seconds

Maximum memory used throughout the entire STARTUP-calculation: 135.3 MB
[ga00:3471958] 24 more processes have sent help message help-mpi-btl-openib.txt / error in device init
[ga00:3471958] Set MCA parameter "orte_base_help_aggregate" to 0 to see all help / error messages
--------------------------------------------------------------------------
WARNING: There was an error initializing an OpenFabrics device.

  Local host:   ga00
  Local device: mlx5_0
--------------------------------------------------------------------------


           ************************************************************
           *        Program running with 25 parallel MPI-processes    *
           *              working on a common directory               *
           ************************************************************
-------------------------------------------------------------------------------
                                 ORCA GUESS
                   Start orbitals & Density for SCF / CASSCF
-------------------------------------------------------------------------------

------------
SCF SETTINGS
------------
Hamiltonian:
 Density Functional     Method          .... DFT(GTOs)
 Exchange Functional    Exchange        .... B88
   X-Alpha parameter    XAlpha          ....  0.666667
   Becke's b parameter  XBeta           ....  0.004200
 Correlation Functional Correlation     .... LYP
 LDA part of GGA corr.  LDAOpt          .... VWN-5
 Gradients option       PostSCFGGA      .... off
 Hybrid DFT is turned on
[...]
 C      1   2   0     2.441349716855    64.20866381     0.00000000
 C      3   1   2     1.488230029514    93.80129711   359.87836130
 C      2   1   3     2.431571301725    45.90619786   319.70198023
 C      5   2   1     1.392553180275   146.48933746    28.97378361
 C      3   1   2     2.448924574343   117.26083770   179.21886119
 C      7   3   1     1.393265849969    28.66235265   182.27622803
 C      1   2   3     1.363269378268    92.84411002   359.04891515
 C      4   3   1     1.396955771823   121.36094741   295.02180047
 C      2   1   3     1.375283686353    25.64352128   357.54948301
 C      5   2   1     1.515073228503    92.75642773   212.53845372
 C      7   3   1     1.517791797030   149.61288806   180.11111452
 C      7   3   1     1.393980012276    89.01621402     2.11410887
 C     10   4   3     1.387673528613   120.69718942   180.27167836
 C     14   7   3     1.387581943074   121.09129274   359.44572433
 C     12   5   2     1.506508389264   113.68839586   299.06643255
 C     13   7   3     1.503419862258   113.75517880    56.19027540
 C     17  12   5     1.330544043338   125.22069824   125.03303658
 C     18  13   7     1.327625685865   125.11212824   236.75422869
 H      6   5   2     1.083337376982   118.46769733   183.60994918
 H      8   7   3     1.084100371595   119.13396446   180.59413257
 H     10   4   3     1.083141402117   119.82278767   359.25739549
 H     12   5   2     1.095567066662   110.07329893    62.00570032
 H     12   5   2     1.093083421735   108.15614845   177.73543200
 H     13   7   3     1.095014166256   110.10061363   293.38924976
 H     13   7   3     1.095217775074   108.23674135   177.50070155
 H     14   7   3     1.084325281357   119.70983217   179.33477806
 H     15  10   4     1.082539939315   120.82663270   178.58980688
 H     16  14   7     1.083061329494   121.00435583   180.07777682
 H     17  12   5     1.087189287689   115.63690245   305.38326248
 H     18  13   7     1.087299453143   115.65942190    56.37975564
 H      1   2   3     0.970327396448    20.40998901   164.02966403
 H      2   1   3     0.969698943995   128.33057767   308.62215547
 H     19  17  12     1.082704802775   121.62915148   179.47680200
 H     19  17  12     1.085665689531   121.59991539     1.18978400
 H     20  18  13     1.082909172210   121.60714554   180.32060678
 H     20  18  13     1.085016044904   121.59578565     0.09504475
 H      2   1   3     3.245746440553    84.93790668   210.29745754
 H     39   2   1     2.424727692807    56.51497687   283.00601143
 O     40  39   2     2.066969419759    90.85244928   111.99444673
 C     40  39   2     1.089572955249    66.41847233   145.87249473
 C     39   2   1     1.087384074720   106.07036097   325.36601114
 C     41  40  39     1.343796187925   114.66403942   324.32578541
 O     44  41  40     1.189243854418   125.66313994   217.82016126
 O     44  41  40     1.367165428619   110.25778285    37.38420295
 F     43  39   2     1.376972467334   107.74164119   187.75948800
 H     42  40  39     1.087514141128   111.23771573   117.60688092
 H     30  16  14     4.862118281572    91.41136858   102.47934136
 H     49  30  16     1.792920740505    18.84653452   337.84518904
 C     49  30  16     1.087694042090    46.91745600    19.45465477
 F     51  49  30     2.387231473935    80.52158564   113.46202278
 C     52  51  49     1.379839969638    36.80036669   196.95380789
 H     53  52  51     1.086967652715   108.20138174   127.86512056
 O     51  49  30     1.435243465308   109.24994643   217.58098784
 O     53  52  51     1.402245001365   108.74718082   246.98536453
 C     55  51  49     1.348042917021   109.63234059   227.73437290
 O     57  55  51     1.187834396578   125.71274408   184.72706195

---------------------------
INTERNAL COORDINATES (A.U.)
---------------------------
 O      0   0   0     0.000000000000     0.00000000     0.00000000
 O      1   0   0    11.866891870862     0.00000000     0.00000000
 C      1   2   0     4.613482361982    64.20866381     0.00000000
 C      3   1   2     2.812347180060    93.80129711   359.87836130
 C      2   1   3     4.595003835362    45.90619786   319.70198023
 C      5   2   1     2.631544137641   146.48933746    28.97378361
 C      3   1   2     4.627796768138   117.26083770   179.21886119
 C      7   3   1     2.632890888187    28.66235265   182.27622803
 C      1   2   3     2.576205771688    92.84411002   359.04891515
 C      4   3   1     2.639863829947   121.36094741   295.02180047
 C      2   1   3     2.598909523657    25.64352128   357.54948301
 C      5   2   1     2.863073474707    92.75642773   212.53845372
 C      7   3   1     2.868210824700   149.61288806   180.11111452
 C      7   3   1     2.634240459361    89.01621402     2.11410887
 C     10   4   3     2.622322932372   120.69718942   180.27167836
 C     14   7   3     2.622149860784   121.09129274   359.44572433
 C     12   5   2     2.846888274164   113.68839586   299.06643255
 C     13   7   3     2.841051803965   113.75517880    56.19027540
 C     17  12   5     2.514363851029   125.22069824   125.03303658
 C     18  13   7     2.508848954645   125.11212824   236.75422869
 H      6   5   2     2.047210953137   118.46769733   183.60994918
 H      8   7   3     2.048652803997   119.13396446   180.59413257
 H     10   4   3     2.046840614313   119.82278767   359.25739549
 H     12   5   2     2.070321717335   110.07329893    62.00570032
 H     12   5   2     2.065628308608   108.15614845   177.73543200
 H     13   7   3     2.069276886987   110.10061363   293.38924976
 H     13   7   3     2.069661651892   108.23674135   177.50070155
 H     14   7   3     2.049077821853   119.70983217   179.33477806
 H     15  10   4     2.045704014337   120.82663270   178.58980688
 H     16  14   7     2.046689298983   121.00435583   180.07777682
 H     17  12   5     2.054490009464   115.63690245   305.38326248
 H     18  13   7     2.054698192002   115.65942190    56.37975564
 H      1   2   3     1.833653039528    20.40998901   164.02966403
 H      2   1   3     1.832465436503   128.33057767   308.62215547
 H     19  17  12     2.046015561126   121.62915148   179.47680200
 H     19  17  12     2.051610826209   121.59991539     1.18978400
 H     20  18  13     2.046401763387   121.60714554   180.32060678
 H     20  18  13     2.050383175779   121.59578565     0.09504475
 H      2   1   3     6.133571872795    84.93790668   210.29745754
 H     39   2   1     4.582071288740    56.51497687   283.00601143
 O     40  39   2     3.906006130535    90.85244928   111.99444673
 C     40  39   2     2.058994488348    66.41847233   145.87249473
 C     39   2   1     2.054858103609   106.07036097   325.36601114
 C     41  40  39     2.539406774986   114.66403942   324.32578541
 O     44  41  40     2.247345191299   125.66313994   217.82016126
 O     44  41  40     2.583568239856   110.25778285    37.38420295
 F     43  39   2     2.602100857210   107.74164119   187.75948800
 H     42  40  39     2.055103893498   111.23771573   117.60688092
 H     30  16  14     9.188071982902    91.41136858   102.47934136
 H     49  30  16     3.388129179381    18.84653452   337.84518904
 C     49  30  16     2.055443857047    46.91745600    19.45465477
 F     51  49  30     4.511213704015    80.52158564   113.46202278
 C     52  51  49     2.607519651254    36.80036669   196.95380789
 H     53  52  51     2.054071180062   108.20138174   127.86512056
 O     51  49  30     2.712217084932   109.24994643   217.58098784
 O     53  52  51     2.649859025239   108.74718082   246.98536453
 C     55  51  49     2.547431929942   109.63234059   227.73437290
 O     57  55  51     2.244681701985   125.71274408   184.72706195

--------------------------------------------------------------------------
WARNING: There was an error initializing an OpenFabrics device.

  Local host:   ga00
  Local device: mlx5_0
--------------------------------------------------------------------------


           ************************************************************
           *        Program running with 25 parallel MPI-processes    *
           *              working on a common directory               *
           ************************************************************
------------------------------------------------------------------------------
                   ___                                                        
                  /   \      - P O W E R E D   B Y -                         
                 /     \                                                     
                 |  |  |   _    _      __       _____    __    __             
                 |  |  |  | |  | |    /  \     |  _  \  |  |  /  |          
                  \  \/   | |  | |   /    \    | | | |  |  | /  /          
                 / \  \   | |__| |  /  /\  \   | |_| |  |  |/  /          
                |  |  |   |  __  | /  /__\  \  |    /   |      \           
                |  |  |   | |  | | |   __   |  |    \   |  |\   \          
                \     /   | |  | | |  |  |  |  | |\  \  |  | \   \       
                 \___/    |_|  |_| |__|  |__|  |_| \__\ |__|  \__/        
                                                                              
                      - O R C A' S   B I G   F R I E N D -                    
                                      &                                       
                       - I N T E G R A L  F E E D E R -                       
                                                                              
 v1 FN, 2020, v2 2021, v3 2022-2024                                           
------------------------------------------------------------------------------


----------------------
SHARK INTEGRAL PACKAGE
----------------------

Number of atoms                             ...     58
Number of basis functions                   ...   1198
Number of shells                            ...    470
Maximum angular momentum                    ...      3
Integral batch strategy                     ... SHARK/LIBINT Hybrid
RI-J (if used) integral strategy            ... SPLIT-RIJ (Revised 2003 algorithm where possible)
Printlevel                                  ...      1
Contraction scheme used                     ... SEGMENTED contraction
Prescreening option                         ... SCHWARTZ
   Thresh                                   ... 2.500e-11
   Tcut                                     ... 2.500e-12
   Tpresel                                  ... 2.500e-12 
Coulomb Range Separation                    ... NOT USED
Exchange Range Separation                   ... NOT USED
Multipole approximations                    ... NOT USED
Finite Nucleus Model                        ... NOT USED
CABS basis                                  ... NOT available
Auxiliary Coulomb fitting basis             ... AVAILABLE
   # of basis functions in Aux-J            ...   1930
   # of shells in Aux-J                     ...    630
   Maximum angular momentum in Aux-J        ...      4
Auxiliary J/K fitting basis                 ... NOT available
Auxiliary Correlation fitting basis         ... NOT available
Auxiliary 'external' fitting basis          ... NOT available

Checking pre-screening integrals            ... done (  0.0 sec) Dimension = 470
Check shell pair data                       ... done (  0.0 sec)
Shell pair information
Shell pair cut-off parameter TPreSel        ...   2.5e-12
Total number of shell pairs                 ...    110685
Shell pairs after pre-screening             ...     64877
Total number of primitive shell pairs       ...    340720
Primitive shell pairs kept                  ...    125252
          la=0 lb=0:  16777 shell pairs
          la=1 lb=0:  19196 shell pairs
          la=1 lb=1:   5501 shell pairs
          la=2 lb=0:   8971 shell pairs
          la=2 lb=1:   5273 shell pairs
          la=2 lb=2:   1243 shell pairs
          la=3 lb=0:   4084 shell pairs
          la=3 lb=1:   2498 shell pairs
          la=3 lb=2:   1082 shell pairs
          la=3 lb=3:    252 shell pairs

Calculating one electron integrals          ... done (  0.1 sec)
Calculating RI/J V-Matrix + Cholesky decomp.... done (  0.2 sec)
Calculating Nuclear repulsion               ... done (  0.0 sec) ENN=   3720.087707426588 Eh

Diagonalization of the overlap matrix:
Smallest eigenvalue                        ... 5.049e-06
Time for diagonalization                   ...    0.244 sec
Threshold for overlap eigenvalues          ... 1.000e-07
Number of eigenvalues below threshold      ... 0
Time for construction of square roots      ...    0.110 sec
Total time needed                          ...    0.364 sec

-------------------
DFT GRID GENERATION
-------------------

General Integration Accuracy     IntAcc      ... 4.388
Radial Grid Type                 RadialGrid  ... OptM3 with GC (2021)
Angular Grid (max. ang.)         AngularGrid ... 4 (Lebedev-302)
Angular grid pruning method      GridPruning ... 4 (adaptive)
Weight generation scheme         WeightScheme... mBecke (2022)
Basis function cutoff            BFCut       ... 1.0000e-11
Integration weight cutoff        WCut        ... 1.0000e-14
Partially contracted basis set               ... off
Rotationally invariant grid construction     ... off
Angular grids for H and He will be reduced by one unit

Total number of grid points                  ...   279627
Total number of batches                      ...     4402
Average number of points per batch           ...       63
Average number of grid points per atom       ...     4821

--------------------
COSX GRID GENERATION
--------------------

GRIDX 1
-------
General Integration Accuracy     IntAcc      ... 3.816
Radial Grid Type                 RadialGrid  ... OptM3 with GC (2021)
Angular Grid (max. ang.)         AngularGrid ... 1 (Lebedev-50)
Angular grid pruning method      GridPruning ... 4 (adaptive)
Weight generation scheme         WeightScheme... mBecke (2022)
Basis function cutoff            BFCut       ... 1.0000e-11
Integration weight cutoff        WCut        ... 1.0000e-14
Partially contracted basis set               ... on
Rotationally invariant grid construction     ... off
Angular grids for H and He will be reduced by one unit

Total number of grid points                  ...    35364
Total number of batches                      ...      312
Average number of points per batch           ...      113
Average number of grid points per atom       ...      610
UseSFitting                                  ... on

GRIDX 2
-------
General Integration Accuracy     IntAcc      ... 4.020
Radial Grid Type                 RadialGrid  ... OptM3 with GC (2021)
Angular Grid (max. ang.)         AngularGrid ... 2 (Lebedev-110)
Angular grid pruning method      GridPruning ... 4 (adaptive)
Weight generation scheme         WeightScheme... mBecke (2022)
Basis function cutoff            BFCut       ... 1.0000e-11
Integration weight cutoff        WCut        ... 1.0000e-14
Partially contracted basis set               ... on
Rotationally invariant grid construction     ... off
Angular grids for H and He will be reduced by one unit

Total number of grid points                  ...    76894
Total number of batches                      ...      633
Average number of points per batch           ...      121
Average number of grid points per atom       ...     1326
UseSFitting                                  ... on

GRIDX 3
-------
General Integration Accuracy     IntAcc      ... 4.338
Radial Grid Type                 RadialGrid  ... OptM3 with GC (2021)
Angular Grid (max. ang.)         AngularGrid ... 3 (Lebedev-194)
Angular grid pruning method      GridPruning ... 4 (adaptive)
Weight generation scheme         WeightScheme... mBecke (2022)
Basis function cutoff            BFCut       ... 1.0000e-11
Integration weight cutoff        WCut        ... 1.0000e-14
Partially contracted basis set               ... on
Rotationally invariant grid construction     ... off
Angular grids for H and He will be reduced by one unit

Total number of grid points                  ...   167944
Total number of batches                      ...     1340
Average number of points per batch           ...      125
Average number of grid points per atom       ...     2896
UseSFitting                                  ... on
Initializing property integral containers    ... done (  0.0 sec)

SHARK setup successfully completed in   4.5 seconds

Maximum memory used throughout the entire STARTUP-calculation: 146.4 MB
[ga00:3486019] 24 more processes have sent help message help-mpi-btl-openib.txt / error in device init
[ga00:3486019] Set MCA parameter "orte_base_help_aggregate" to 0 to see all help / error messages
--------------------------------------------------------------------------
WARNING: There was an error initializing an OpenFabrics device.

  Local host:   ga00
  Local device: mlx5_0
--------------------------------------------------------------------------


           ************************************************************
           *        Program running with 25 parallel MPI-processes    *
           *              working on a common directory               *
           ************************************************************
Occupation numbers will be reassigned to an Aufbau configuration
             **** ENERGY FILE WAS UPDATED (honokiol2-opt_FEC2.en.tmp) ****
Finished Guess after   2.0 sec
Maximum memory used throughout the entire GUESS-calculation: 144.8 MB
[ga00:3486192] 24 more processes have sent help message help-mpi-btl-openib.txt / error in device init
[ga00:3486192] Set MCA parameter "orte_base_help_aggregate" to 0 to see all help / error messages
--------------------------------------------------------------------------
WARNING: There was an error initializing an OpenFabrics device.

  Local host:   ga00
  Local device: mlx5_0
--------------------------------------------------------------------------


           ************************************************************
           *        Program running with 25 parallel MPI-processes    *
           *              working on a common directory               *
           ************************************************************
----------------------------------------D-I-I-S--------------------------------------------
Iteration    Energy (Eh)           Delta-E    RMSDP     MaxDP     DIISErr   Damp  Time(sec)
-------------------------------------------------------------------------------------------
               ***  Starting incremental Fock matrix formation  ***
[ga00:3486326] 24 more processes have sent help message help-mpi-btl-openib.txt / error in device init
[ga00:3486326] Set MCA parameter "orte_base_help_aggregate" to 0 to see all help / error messages
    1    -1730.2458523387767855     0.00e+00  1.87e-05  2.40e-03  4.33e-03  0.700   8.0
    2    -1730.2459378291669054    -8.55e-05  1.60e-05  2.01e-03  3.35e-03  0.700   3.8
                               ***Turning on AO-DIIS***
                              *** Initializing SOSCF ***
---------------------------------------S-O-S-C-F--------------------------------------
Iteration    Energy (Eh)           Delta-E    RMSDP     MaxDP     MaxGrad    Time(sec)
--------------------------------------------------------------------------------------
    3    -1730.2460044993958945    -6.67e-05  4.14e-05  4.62e-03  2.48e-03     3.7
               *** Restarting incremental Fock matrix formation ***
    4    -1730.2461741283195806    -1.70e-04  8.56e-06  5.61e-04  1.12e-04     7.7
    5    -1730.2461744633774288    -3.35e-07  4.22e-06  5.27e-04  1.94e-04     4.3
    6    -1730.2461752179142422    -7.55e-07  3.62e-06  2.52e-04  5.43e-05     4.0
    7    -1730.2461752842527858    -6.63e-08  1.56e-06  1.80e-04  1.82e-05     3.8
    8    -1730.2461753065645098    -2.23e-08  3.04e-06  5.03e-04  1.26e-05     3.3
