
                                 *****************
                                 * O   R   C   A *
                                 *****************

                                            #,                                       
                                            ###                                      
                                            ####                                     
                                            #####                                    
                                            ######                                   
                                           ########,                                 
                                     ,,################,,,,,                         
                               ,,#################################,,                 
                          ,,##########################################,,             
                       ,#########################################, ''#####,          
                    ,#############################################,,   '####,        
                  ,##################################################,,,,####,       
                ,###########''''           ''''###############################       
              ,#####''   ,,,,##########,,,,          '''####'''          '####       
            ,##' ,,,,###########################,,,                        '##       
           ' ,,###''''                  '''############,,,                           
         ,,##''                                '''############,,,,        ,,,,,,###''
      ,#''                                            '''#######################'''  
     '                                                          ''''####''''         
             ,#######,   #######,   ,#######,      ##                                
            ,#'     '#,  ##    ##  ,#'     '#,    #''#        ,####,   ,####,        
            ##       ##  ##   ,#'  ##            #'  '#       #'       #'  '#        
            ##       ##  #######   ##           ,######,      #####,   #    #        
            '#,     ,#'  ##    ##  '#,     ,#' ,#      #,     #,   #   #,  ,#        
             '#######'   ##     ##  '#######'  #'      '#     '####' # '####'        



                #########################################################
                #                        -***-                          #
                #          Department of theory and spectroscopy        #
                #                                                       #
                #                      Frank Neese                      #
                #                                                       #
                #     Directorship, Architecture, Infrastructure        #
                #                    SHARK, DRIVERS                     #
                #        Core code/Algorithms in most modules           #
                #                                                       #
                #        Max Planck Institute fuer Kohlenforschung      #
                #                Kaiser Wilhelm Platz 1                 #
                #                 D-45470 Muelheim/Ruhr                 #
                #                      Germany                          #
                #                                                       #
                #                  All rights reserved                  #
                #                        -***-                          #
                #########################################################


                         Program Version 6.0.1  -  RELEASE   -


 With contributions from (in alphabetic order):
[Max-Planck-Institut fuer Kohlenforschung]                               
  Daniel Aravena         : Magnetic Suceptibility                        
  Michael Atanasov       : Ab Initio Ligand Field Theory (pilot matlab implementation)
  Alexander A. Auer      : GIAO ZORA, VPT2 properties, NMR spectrum      
  Ute Becker             : All parallelization in ORCA, NUMFREQ, NUMCALC 
  Giovanni Bistoni       : ED, misc. LED, open-shell LED, HFLD           
  Martin Brehm           : Molecular dynamics                            
  Dmytro Bykov           : pre 5.0 version of the SCF Hessian            
  Marcos Casanova-Páez   : Triplet and SCS-CIS(D). UHF-(DLPNO)-IP/EA/STEOM-CCSD. UHF-CVS-IP/STEOM-CCSD   
  Vijay G. Chilkuri      : MRCI spin determinant printing, contributions to CSF-ICE 
  Pauline Colinet        : FMM embedding                                 
  Dipayan Datta          : RHF DLPNO-CCSD density                        
  Achintya Kumar Dutta   : EOM-CC, STEOM-CC                              
  Nicolas Foglia         : Exact transition moments, OPA infrastructure, MCD improvements    
  Dmitry Ganyushin       : Spin-Orbit,Spin-Spin,Magnetic field MRCI      
  Miquel Garcia-Rates    : C-PCM and meta-GGA Hessian, CCSD/C-PCM, Gaussian charge scheme 
  Tiago L. C. Gouveia    : GS-ROHF, GS-ROCIS                             
  Yang Guo               : DLPNO-NEVPT2, F12-NEVPT2, CIM, IAO-localization        
  Andreas Hansen         : Spin unrestricted coupled pair/coupled cluster methods 
  Ingolf Harden          : AUTO-CI MPn and infrastructure                
  Benjamin Helmich-Paris : MC-RPA, TRAH-(SCF,CASSCF), AVAS, COSX integrals, SCF dyn. polar. 
  Lee Huntington         : MR-EOM, pCC                                   
  Robert Izsak           : Overlap fitted RIJCOSX, COSX-SCS-MP3, EOM     
  Riya Kayal             : Wick's Theorem for AUTO-CI, AUTO-CI UHF-CCSDT 
  Emily Kempfer          : AUTO-CI, RHF CISDT and CCSDT                  
  Christian Kollmar      : KDIIS, OOCD, Brueckner-CCSD(T), CCSD density, CASPT2, CASPT2-K, improved NEVPT2 
  Axel Koslowski         : Symmetry handling                             
  Simone Kossmann        : meta-GGA functionals, TD-DFT gradient, OOMP2, (MP2 Hessian; deprecated post 5.0) 
  Lucas Lang             : DCDCAS                                        
  Marvin Lechner         : AUTO-CI (C++ implementation), FIC-MRCC        
  Spencer Leger          : CASSCF response                               
  Dagmar Lenk            : GEPOL surface, SMD, ORCA-2-JSON               
  Dimitrios Liakos       : Extrapolation schemes; Compound Job, initial MDCI parallelization 
  Dimitrios Manganas     : Further ROCIS development; embedding schemes. LFT, Crystal Embedding 
  Dimitrios Pantazis     : SARC Basis sets                               
  Anastasios Papadopoulos: AUTO-CI, single reference methods and gradients 
  Taras Petrenko         : pre 6.0 DFT Hessian and TD-DFT gradient, (ASA, deprecated), ECA, 1-Electron XAS/XES, NRVS 
  Peter Pinski           : DLPNO-MP2, DLPNO-MP2 Gradient                 
  Christoph Reimann      : Effective Core Potentials                     
  Marius Retegan         : Local ZFS, SOC                                
  Christoph Riplinger    : Optimizer, TS searches, QM/MM, DLPNO-CCSD(T), (RO)-DLPNO pert. Triples 
  Michael Roemelt        : Original ROCIS implementation                 
  Masaaki Saitow         : Open-shell DLPNO-CCSD energy and density      
  Barbara Sandhoefer     : DKH picture change effects                    
  Kantharuban Sivalingam : CASSCF convergence/infrastructure, NEVPT2 and variants, FIC-MRCI 
  Bernardo de Souza      : ESD, SOC TD-DFT                               
  Georgi L. Stoychev     : AutoAux, RI-MP2 NMR, DLPNO-MP2 response, X2C  
  Van Anh Tran           : RI-MP2 g-tensors                              
  Willem Van den Heuvel  : Paramagnetic NMR                              
  Zikuan Wang            : NOTCH, Electric field optimization            
  Frank Wennmohs         : Technical directorship and infrastructure     
  Hang Xu                : AUTO-CI-Response properties                   
                                                                         
[FACCTs GmbH]                                                            
  Markus Bursch, Miquel Garcia-Rates, Christoph Riplinger, Bernardo de Souza, Georgi L. Stoychev 
                                                                 
  APM, Basis sets (HGBS, AHGBS, def-TZVP (Ac-Lr), def2-XVPD (La-Lu)), CI-OPT, improved COSX, DLPNO-Multilevel,           
  DOCKER, DRACO, updates on ESD, GOAT, IRC, LR-CPCM, MBIS, meta-GGA TD-DFT gradient, ML-optimized integration grids, 
  MM, NACMEs, nearIR, NEB, NEB-TS, NL-DFT gradient (VV10), 2- and 3-layer-ONIOM, interface openCOSMO-RS, QMMM,   
  Crystal-QMMM, SF, symmetry and pop. for TD-DFT, r2SCAN hybrids, SOLVATOR                                   
                                                                         
[Other institutions]                                                     
  V. Asgeirsson          : NEB                                           
  Christoph Bannwarth    : sTDA-DFT, sTD-DFT, PBEh-3c, B97-3c, D3        
  Sebastian Ehlert       : rSCAN, r2SCAN, r2SCAN-3c, D4, dhf basis sets  
  Marvin Friede          : D4 for Fr, Ra, Ac-Lr                          
  Lars Goerigk           : TD-DFT with DH, B97 family of functionals     
  Stefan Grimme          : VdW corrections, initial TS optimization, DFT functionals, gCP, sTDA/sTD-DF 
  Waldemar Hujo          : DFT-NL                                        
  H. Jonsson             : NEB                                           
  Holger Kruse           : gCP                                           
  Marcel Mueller         : wB97X-3c, vDZP basis set                      
  Hagen Neugebauer       : wr2SCAN                                       
  Tobias Risthaus        : range-separated hybrid DFT                    
  Lukas Wittmann         : regularized MP2, r2SCAN double-hybrids, wr2SCAN        
                                                                         
We gratefully acknowledge several colleagues who have allowed us to      
interface, adapt or use parts of their codes:                            
  Ed Valeev, F. Pavosevic, A. Kumar             : LibInt (2-el integral package), F12 methods 
  Garnet Chan, S. Sharma, J. Yang, R. Olivares  : DMRG                   
  Ulf Ekstrom                                   : XCFun DFT Library      
  Mihaly Kallay                                 : mrcc  (arbitrary order and MRCC methods)
  Frank Weinhold                                : gennbo (NPA and NBO analysis)           
  Simon Mueller                                 : openCOSMO-RS                            
  Christopher J. Cramer and Donald G. Truhlar   : smd solvation model                     
  S Lehtola, MJT Oliveira, MAL Marques          : LibXC Library                           
  Liviu Ungur et al                             : ANISO software                          


 Your calculation uses the libint2 library for the computation of 2-el integrals
 For citations please refer to: http://libint.valeyev.net

 Your ORCA version has been built with support for libXC version: 6.2.2
 For citations please refer to: https://libxc.gitlab.io

 This ORCA versions uses:
   CBLAS   interface :  Fast vector & matrix operations
   LAPACKE interface :  Fast linear algebra routines
   SCALAPACK package :  Parallel linear algebra routines
   Shared memory     :  Shared parallel matrices
   BLAS/LAPACK       :  OpenBLAS 0.3.27  USE64BITINT DYNAMIC_ARCH NO_AFFINITY SkylakeX SINGLE_THREADED
        Core in use  :  SkylakeX
   Copyright (c) 2011-2014, The OpenBLAS Project


NOTE: MaxCore=5000 MB was set to SCF,MP2,MDCI,CIPSI,MRCI and CIS
      => If you want to overwrite this, your respective input block should be placed after the MaxCore statement
Warning: RI is on but no J-basis has been assigned. Assigning Def2/J (nothing to worry about!)
================================================================================

----- Orbital basis set information -----
Your calculation utilizes the basis: def2-TZVP
   F. Weigend and R. Ahlrichs, Phys. Chem. Chem. Phys. 7, 3297 (2005).

----- AuxJ basis set information -----
Your calculation utilizes the auxiliary basis: def2/J
   F. Weigend, Phys. Chem. Chem. Phys. 8, 1057 (2006).

================================================================================
                                        WARNINGS
                       Please study these warnings very carefully!
================================================================================


WARNING: Geometry Optimization
  ===> : Switching off AutoStart
         For restart on a previous wavefunction, please use MOREAD

================================================================================
                                       INPUT FILE
================================================================================
NAME = honokiol2.inp
|  1> ! Opt B3LYP def2-TZVP TightSCF TightOpt CPCM(water)
|  2> 
|  3> %maxcore 5000
|  4> 
|  5> %pal
|  6> nprocs 20
|  7> end
|  8> 
|  9> * xyz 0 1
| 10> O           1.43781396904993      1.31956612345791      2.48468433319581
| 11>   O          -3.62347843921718     -2.41724762608739      2.17112963576646
| 12>   C           1.23165087469998     -0.04524406273437      0.48175268561596
| 13>   C          -0.05012954589113     -0.65101744071631      0.92722451694895
| 14>   C          -2.40247599363198     -1.17018447501868      0.48054858121080
| 15>   C          -1.18619584648327     -0.59889388847865      0.11437325586950
| 16>   C           2.98671349428596      0.16172341264446     -1.21215839741290
| 17>   C           1.78640847772282     -0.37901636024270     -0.75579095655152
| 18>   C           1.91364468124659      0.89170120951340      1.27839826479913
| 19>   C          -0.16528004599369     -1.31154866721798      2.15724603164201
| 20>   C          -2.47719084918800     -1.83509953484444      1.71527307384049
| 21>   C          -3.61882313162164     -1.03763140152487     -0.41452229491397
| 22>   C           3.55763066373366     -0.24510356891412     -2.55778596311962
| 23>   C           3.64211878060039      1.07664773964895     -0.38967756999719
| 24>   C          -1.36131883286036     -1.89633601264824      2.54500150927538
| 25>   C           3.11264860069266      1.44271939201016      0.83960929677719
| 26>   C          -4.20446513091141     -2.35282843998708     -0.86066146783848
| 27>   C           2.68255033666981      0.13917581891887     -3.71901332384119
| 28>   C          -5.47582989442325     -2.71293389458071     -0.70951440370433
| 29>   C           2.19414321790238     -0.70348418126244     -4.62143192850212
| 30>   H          -1.12460822711274     -0.07615306412587     -0.83348737784514
| 31>   H           1.26403225671752     -1.10060012982200     -1.37392145731422
| 32>   H           0.70081798328530     -1.40372573930811      2.80194484009726
| 33>   H          -4.39612253758763     -0.45202524555229      0.08900696020899
| 34>   H          -3.32510329965460     -0.46649040195218     -1.30004366119698
| 35>   H           3.73330844460754     -1.32510454919781     -2.58297114513916
| 36>   H           4.53597071845039      0.23246026544822     -2.67605930204806
| 37>   H           4.58076893342698      1.51307857937819     -0.71196482832420
| 38>   H          -1.44513104884310     -2.42398580467270      3.48636157770594
| 39>   H           3.61250715706545      2.16559210094313      1.47150912258637
| 40>   H          -3.51037409872096     -3.04098535599171     -1.33664325474117
| 41>   H           2.44395701096569      1.19733239237477     -3.79630315117068
| 42>   H           0.56607731197043      0.93171817042748      2.64077888837304
| 43>   H          -4.23488212903567     -2.57265466930178      1.43672265040035
| 44>   H          -5.83907487278300     -3.67107868737665     -1.05895616458907
| 45>   H          -6.20283074610648     -2.05403842652119     -0.24523589971118
| 46>   H           1.57171583625792     -0.36205147411773     -5.43930106676794
| 47>   H           2.40419585081472     -1.76704531166749     -4.57823511468454
| 48> *
| 49> 
| 50>                          ****END OF INPUT****
================================================================================

                       *****************************
                       * Geometry Optimization Run *
                       *****************************

Geometry optimization settings:
Update method            Update   .... BFGS
Choice of coordinates    CoordSys .... (2022) Redundant Internals
Initial Hessian          InHess   .... Almloef's Model
Max. no of cycles        MaxIter  .... 114

Convergence Tolerances:
Energy Change            TolE     ....  1.0000e-06 Eh
Max. Gradient            TolMAXG  ....  1.0000e-04 Eh/bohr
RMS Gradient             TolRMSG  ....  3.0000e-05 Eh/bohr
Max. Displacement        TolMAXD  ....  1.0000e-03 bohr
RMS Displacement         TolRMSD  ....  6.0000e-04 bohr
Strict Convergence                .... False

------------------------------------------------------------------------------
                        ORCA OPTIMIZATION COORDINATE SETUP
------------------------------------------------------------------------------

The optimization will be done in redundant internal coordinates (2022)
Making redundant internal coordinates   ...  (2022 redundants) done
Evaluating the initial hessian          ...  (Almloef) done
Evaluating the coordinates              ...  done
Calculating the B-matrix                .... done
Calculating the G-matrix                .... done
Diagonalizing the G-matrix              .... done
Small eigenvalue found = 2.432e-03
Small eigenvalue found = 8.604e-03
Small eigenvalue found = 1.509e-02
Small eigenvalue found = 1.667e-02
Small eigenvalue found = 2.180e-02
Small eigenvalue found = 2.827e-02
The first mode is                       ....   77
The number of degrees of freedom        ....  108

    -----------------------------------------------------------------
                    Redundant Internal Coordinates


    -----------------------------------------------------------------
         Definition                    Initial Value    Approx d2E/dq
    -----------------------------------------------------------------
      1. B(C   3,C   2)                  1.4861         0.439020   
      2. B(C   5,C   3)                  1.3979         0.606951   
      3. B(C   5,C   4)                  1.3928         0.618482   
      4. B(C   7,C   6)                  1.3933         0.617172   
      5. B(C   7,C   2)                  1.3967         0.609683   
      6. B(C   8,C   2)                  1.4063         0.588523   
      7. B(C   8,O   0)                  1.3655         0.612283   
      8. B(C   9,C   3)                  1.4009         0.600278   
      9. B(C  10,C   4)                  1.4044         0.592681   
     10. B(C  10,O   1)                  1.3641         0.615533   
     11. B(C  11,C   4)                  1.5160         0.393307   
     12. B(C  12,C   6)                  1.5173         0.391432   
     13. B(C  13,C   6)                  1.3940         0.615779   
     14. B(C  14,C  10)                  1.3919         0.620464   
     15. B(C  14,C   9)                  1.3867         0.632499   
     16. B(C  15,C  13)                  1.3876         0.630280   
     17. B(C  15,C   8)                  1.3906         0.623422   
     18. B(C  16,C  11)                  1.5072         0.406159   
     19. B(C  17,C  12)                  1.5040         0.411082   
     20. B(C  18,C  16)                  1.3300         0.778881   
     21. B(C  19,C  17)                  1.3278         0.785273   
     22. B(H  20,C   5)                  1.0842         0.367854   
     23. B(H  21,C   7)                  1.0843         0.367758   
     24. B(H  22,C   9)                  1.0836         0.368623   
     25. B(H  23,C  11)                  1.0958         0.352572   
     26. B(H  24,C  11)                  1.0939         0.354975   
     27. B(H  25,C  12)                  1.0945         0.354215   
     28. B(H  26,C  12)                  1.0951         0.353439   
     29. B(H  27,C  13)                  1.0842         0.367908   
     30. B(H  28,C  14)                  1.0824         0.370291   
     31. B(H  29,C  15)                  1.0825         0.370226   
     32. B(H  30,C  16)                  1.0871         0.363899   
     33. B(H  31,C  17)                  1.0875         0.363460   
     34. B(H  32,O   0)                  0.9668         0.507115   
     35. B(H  33,O   1)                  0.9682         0.504615   
     36. B(H  34,C  18)                  1.0826         0.369976   
     37. B(H  35,C  18)                  1.0855         0.366153   
     38. B(H  36,C  19)                  1.0830         0.369472   
     39. B(H  37,C  19)                  1.0850         0.366822   
     40. A(C   8,O   0,H  32)          109.3372         0.367738   
     41. A(C  10,O   1,H  33)          110.2241         0.367760   
     42. A(C   7,C   2,C   8)          117.9398         0.428728   
     43. A(C   3,C   2,C   7)          120.7171         0.406924   
     44. A(C   3,C   2,C   8)          121.3373         0.404392   
     45. A(C   2,C   3,C   9)          121.7561         0.405807   
     46. A(C   2,C   3,C   5)          120.7622         0.406601   
     47. A(C   5,C   3,C   9)          117.4734         0.429905   
     48. A(C  10,C   4,C  11)          121.1856         0.397131   
     49. A(C   5,C   4,C  11)          120.6360         0.400117   
     50. A(C   5,C   4,C  10)          118.1526         0.430375   
     51. A(C   3,C   5,H  20)          118.6968         0.352911   
     52. A(C   3,C   5,C   4)          122.7889         0.432218   
     53. A(C   4,C   5,H  20)          118.5043         0.354038   
     54. A(C   7,C   6,C  13)          117.8075         0.433177   
     55. A(C   7,C   6,C  12)          120.7015         0.399631   
     56. A(C  12,C   6,C  13)          121.4899         0.399472   
     57. A(C   2,C   7,H  21)          118.2172         0.353164   
     58. A(C   6,C   7,H  21)          119.1160         0.353895   
     59. A(C   2,C   7,C   6)          122.6595         0.432402   
     60. A(O   0,C   8,C   2)          122.6978         0.426257   
     61. A(C   2,C   8,C  15)          120.2249         0.430446   
     62. A(O   0,C   8,C  15)          117.0676         0.430683   
     63. A(C   3,C   9,C  14)          121.0152         0.433101   
     64. A(C  14,C   9,H  22)          119.1529         0.355511   
     65. A(C   3,C   9,H  22)          119.7875         0.352376   
     66. A(O   1,C  10,C   4)          122.7239         0.427200   
     67. A(O   1,C  10,C  14)          117.1105         0.430725   
     68. A(C   4,C  10,C  14)          120.1513         0.430622   
     69. A(C   4,C  11,C  16)          114.2187         0.371870   
     70. A(H  23,C  11,H  24)          106.4650         0.289226   
     71. A(C  16,C  11,H  24)          108.6815         0.328039   
     72. A(C   4,C  11,H  24)          107.9488         0.326305   
     73. A(C  16,C  11,H  23)          109.0704         0.327671   
     74. A(C   4,C  11,H  23)          110.1561         0.325941   
     75. A(C   6,C  12,C  17)          113.4104         0.372336   
     76. A(H  25,C  12,H  26)          106.5255         0.289240   
     77. A(C   6,C  12,H  26)          108.3618         0.325816   
     78. A(C  17,C  12,H  25)          109.1327         0.328575   
     79. A(C   6,C  12,H  25)          110.2052         0.325934   
     80. A(C  17,C  12,H  26)          108.9658         0.328456   
     81. A(C   6,C  13,C  15)          121.0949         0.434818   
     82. A(C  15,C  13,H  27)          119.1768         0.355182   
     83. A(C   6,C  13,H  27)          119.7283         0.353784   
     84. A(C  10,C  14,H  28)          118.5423         0.354626   
     85. A(C   9,C  14,H  28)          121.0350         0.355784   
     86. A(C   9,C  14,C  10)          120.4135         0.435687   
     87. A(C  13,C  15,H  29)          121.1401         0.355561   
     88. A(C   8,C  15,H  29)          118.5924         0.354902   
     89. A(C   8,C  15,C  13)          120.2647         0.435784   
     90. A(C  11,C  16,C  18)          125.0328         0.419180   
     91. A(C  18,C  16,H  30)          119.2537         0.367555   
     92. A(C  11,C  16,H  30)          115.7132         0.329386   
     93. A(C  12,C  17,C  19)          125.2143         0.420694   
     94. A(C  19,C  17,H  31)          119.2437         0.367994   
     95. A(C  12,C  17,H  31)          115.5412         0.329976   
     96. A(H  34,C  18,H  35)          116.7794         0.292847   
     97. A(C  16,C  18,H  35)          121.6339         0.367945   
     98. A(C  16,C  18,H  34)          121.5788         0.368601   
     99. A(H  36,C  19,H  37)          116.7680         0.292868   
    100. A(C  17,C  19,H  37)          121.5907         0.368577   
    101. A(C  17,C  19,H  36)          121.6404         0.369032   
    102. D(C   5,C   3,C   2,C   8)    126.1242         0.013153   
    103. D(C   9,C   3,C   2,C   8)    -54.9479         0.013153   
    104. D(C   9,C   3,C   2,C   7)    125.9471         0.013153   
    105. D(C   5,C   3,C   2,C   7)    -52.9808         0.013153   
    106. D(H  20,C   5,C   4,C  11)     -1.2601         0.026461   
    107. D(H  20,C   5,C   3,C   2)     -2.1826         0.025428   
    108. D(H  20,C   5,C   4,C  10)   -179.4355         0.026461   
    109. D(C   3,C   5,C   4,C  10)     -0.5955         0.026461   
    110. D(C   3,C   5,C   4,C  11)    177.5799         0.026461   
    111. D(C   4,C   5,C   3,C   9)      0.0070         0.025428   
    112. D(C   4,C   5,C   3,C   2)    178.9795         0.025428   
    113. D(H  20,C   5,C   3,C   9)    178.8449         0.025428   
    114. D(C   6,C   7,C   2,C   3)   -179.8475         0.025671   
    115. D(C   6,C   7,C   2,C   8)      1.0178         0.025671   
    116. D(H  21,C   7,C   2,C   3)     -0.8348         0.025671   
    117. D(H  21,C   7,C   6,C  13)   -179.3662         0.026343   
    118. D(H  21,C   7,C   6,C  12)      0.2566         0.026343   
    119. D(C   2,C   7,C   6,C  13)     -0.3620         0.026343   
    120. D(C   2,C   7,C   6,C  12)    179.2609         0.026343   
    121. D(H  21,C   7,C   2,C   8)   -179.9695         0.025671   
    122. D(C  15,C   8,C   2,C   7)     -0.9595         0.023830   
    123. D(C  15,C   8,C   2,C   3)    179.9114         0.023830   
    124. D(O   0,C   8,C   2,C   7)    177.8780         0.023830   
    125. D(C  15,C   8,O   0,H  32)    174.7142         0.027456   
    126. D(O   0,C   8,C   2,C   3)     -1.2511         0.023830   
    127. D(C   2,C   8,O   0,H  32)     -4.1578         0.027456   
    128. D(H  22,C   9,C   3,C   5)    177.9212         0.024842   
    129. D(C  14,C   9,C   3,C   5)      0.3641         0.024842   
    130. D(H  22,C   9,C   3,C   2)     -1.0404         0.024842   
    131. D(C  14,C   9,C   3,C   2)   -178.5975         0.024842   
    132. D(C   4,C  10,O   1,H  33)     19.4833         0.027769   
    133. D(C  14,C  10,C   4,C  11)   -177.3400         0.024185   
    134. D(C  14,C  10,C   4,C   5)      0.8249         0.024185   
    135. D(O   1,C  10,C   4,C  11)      1.2456         0.024185   
    136. D(O   1,C  10,C   4,C   5)    179.4105         0.024185   
    137. D(C  14,C  10,O   1,H  33)   -161.8907         0.027769   
    138. D(H  24,C  11,C   4,C   5)      0.5418         0.011499   
    139. D(H  23,C  11,C   4,C  10)     62.7955         0.011499   
    140. D(H  23,C  11,C   4,C   5)   -115.3241         0.011499   
    141. D(C  16,C  11,C   4,C  10)    -60.3483         0.011499   
    142. D(C  16,C  11,C   4,C   5)    121.5322         0.011499   
    143. D(H  26,C  12,C   6,C   7)   -175.3752         0.011395   
    144. D(H  25,C  12,C   6,C  13)    120.4336         0.011395   
    145. D(H  25,C  12,C   6,C   7)    -59.1751         0.011395   
    146. D(C  17,C  12,C   6,C  13)   -116.8883         0.011395   
    147. D(C  17,C  12,C   6,C   7)     63.5030         0.011395   
    148. D(H  27,C  13,C   6,C  12)      0.0870         0.026217   
    149. D(H  27,C  13,C   6,C   7)    179.7067         0.026217   
    150. D(C  15,C  13,C   6,C  12)   -179.9880         0.026217   
    151. D(C  15,C  13,C   6,C   7)     -0.3683         0.026217   
    152. D(H  28,C  14,C  10,C   4)   -179.3924         0.026642   
    153. D(H  28,C  14,C  10,O   1)      1.9444         0.026642   
    154. D(C   9,C  14,C  10,C   4)     -0.4797         0.026642   
    155. D(C   9,C  14,C  10,O   1)   -179.1430         0.026642   
    156. D(H  28,C  14,C   9,H  22)      1.1818         0.027752   
    157. D(H  28,C  14,C   9,C   3)    178.7542         0.027752   
    158. D(C  10,C  14,C   9,H  22)   -177.7034         0.027752   
    159. D(C  10,C  14,C   9,C   3)     -0.1310         0.027752   
    160. D(C   8,C  15,C  13,C   6)      0.4095         0.027545   
    161. D(H  29,C  15,C   8,C   2)    179.6626         0.026912   
    162. D(H  29,C  15,C   8,O   0)      0.7612         0.026912   
    163. D(C  13,C  15,C   8,C   2)      0.2750         0.026912   
    164. D(C  13,C  15,C   8,O   0)   -178.6264         0.026912   
    165. D(H  29,C  15,C  13,H  27)      0.9631         0.027545   
    166. D(H  29,C  15,C  13,C   6)   -178.9623         0.027545   
    167. D(C   8,C  15,C  13,H  27)   -179.6651         0.027545   
    168. D(H  30,C  16,C  11,H  23)   -177.3740         0.012227   
    169. D(H  30,C  16,C  11,C   4)    -53.6444         0.012227   
    170. D(C  18,C  16,C  11,H  24)   -113.2472         0.012227   
    171. D(C  18,C  16,C  11,H  23)      2.4399         0.012227   
    172. D(C  18,C  16,C  11,C   4)    126.1695         0.012227   
    173. D(H  31,C  17,C  12,H  25)   -179.7943         0.012513   
    174. D(H  31,C  17,C  12,C   6)     56.9368         0.012513   
    175. D(C  19,C  17,C  12,H  26)    116.4855         0.012513   
    176. D(C  19,C  17,C  12,H  25)      0.5361         0.012513   
    177. D(C  19,C  17,C  12,C   6)   -122.7329         0.012513   
    178. D(H  35,C  18,C  16,H  30)   -179.6270         0.043592   
    179. D(H  35,C  18,C  16,C  11)      0.5653         0.043592   
    180. D(H  34,C  18,C  16,H  30)     -0.6802         0.043592   
    181. D(H  34,C  18,C  16,C  11)    179.5120         0.043592   
    182. D(H  37,C  19,C  17,H  31)   -179.7245         0.044385   
    183. D(H  37,C  19,C  17,C  12)     -0.0661         0.044385   
    184. D(H  36,C  19,C  17,H  31)      0.6338         0.044385   
    185. D(H  36,C  19,C  17,C  12)   -179.7078         0.044385   
    -----------------------------------------------------------------

Number of atoms                         .... 38
Number of degrees of freedom            .... 185


         *************************************************************
         *                GEOMETRY OPTIMIZATION CYCLE   1            *
         *************************************************************
---------------------------------
CARTESIAN COORDINATES (ANGSTROEM)
---------------------------------
  O      1.437814    1.319566    2.484684
  O     -3.623478   -2.417248    2.171130
  C      1.231651   -0.045244    0.481753
  C     -0.050130   -0.651017    0.927225
  C     -2.402476   -1.170184    0.480549
  C     -1.186196   -0.598894    0.114373
  C      2.986713    0.161723   -1.212158
  C      1.786408   -0.379016   -0.755791
  C      1.913645    0.891701    1.278398
  C     -0.165280   -1.311549    2.157246
  C     -2.477191   -1.835100    1.715273
  C     -3.618823   -1.037631   -0.414522
  C      3.557631   -0.245104   -2.557786
  C      3.642119    1.076648   -0.389678
  C     -1.361319   -1.896336    2.545002
  C      3.112649    1.442719    0.839609
  C     -4.204465   -2.352828   -0.860661
  C      2.682550    0.139176   -3.719013
  C     -5.475830   -2.712934   -0.709514
  C      2.194143   -0.703484   -4.621432
  H     -1.124608   -0.076153   -0.833487
  H      1.264032   -1.100600   -1.373921
  H      0.700818   -1.403726    2.801945
  H     -4.396123   -0.452025    0.089007
  H     -3.325103   -0.466490   -1.300044
  H      3.733308   -1.325105   -2.582971
  H      4.535971    0.232460   -2.676059
  H      4.580769    1.513079   -0.711965
  H     -1.445131   -2.423986    3.486362
  H      3.612507    2.165592    1.471509
  H     -3.510374   -3.040985   -1.336643
  H      2.443957    1.197332   -3.796303
  H      0.566077    0.931718    2.640779
  H     -4.234882   -2.572655    1.436723
  H     -5.839075   -3.671079   -1.058956
  H     -6.202831   -2.054038   -0.245236
  H      1.571716   -0.362051   -5.439301
  H      2.404196   -1.767045   -4.578235

----------------------------
CARTESIAN COORDINATES (A.U.)
----------------------------
  NO LB      ZA    FRAG     MASS         X           Y           Z
   0 O     8.0000    0    15.999    2.717075    2.493619    4.695373
   1 O     8.0000    0    15.999   -6.847382   -4.567936    4.102840
   2 C     6.0000    0    12.011    2.327483   -0.085499    0.910381
   3 C     6.0000    0    12.011   -0.094731   -1.230245    1.752200
   4 C     6.0000    0    12.011   -4.540022   -2.211328    0.908105
   5 C     6.0000    0    12.011   -2.241585   -1.131745    0.216134
   6 C     6.0000    0    12.011    5.644071    0.305613   -2.290647
   7 C     6.0000    0    12.011    3.375823   -0.716237   -1.428238
   8 C     6.0000    0    12.011    3.616264    1.685071    2.415823
   9 C     6.0000    0    12.011   -0.312334   -2.478468    4.076604
  10 C     6.0000    0    12.011   -4.681212   -3.467836    3.241396
  11 C     6.0000    0    12.011   -6.838585   -1.960839   -0.783334
  12 C     6.0000    0    12.011    6.722948   -0.463179   -4.833515
  13 C     6.0000    0    12.011    6.882607    2.034569   -0.736384
  14 C     6.0000    0    12.011   -2.572520   -3.583556    4.809356
  15 C     6.0000    0    12.011    5.882053    2.726345    1.586632
  16 C     6.0000    0    12.011   -7.945288   -4.446201   -1.626414
  17 C     6.0000    0    12.011    5.069285    0.263004   -7.027917
  18 C     6.0000    0    12.011  -10.347819   -5.126702   -1.340788
  19 C     6.0000    0    12.011    4.146330   -1.329392   -8.733241
  20 H     1.0000    0     1.008   -2.125202   -0.143908   -1.575063
  21 H     1.0000    0     1.008    2.388675   -2.079833   -2.596335
  22 H     1.0000    0     1.008    1.324354   -2.652657    5.294908
  23 H     1.0000    0     1.008   -8.307468   -0.854204    0.168199
  24 H     1.0000    0     1.008   -6.283535   -0.881539   -2.456726
  25 H     1.0000    0     1.008    7.054931   -2.504085   -4.881108
  26 H     1.0000    0     1.008    8.571742    0.439286   -5.057019
  27 H     1.0000    0     1.008    8.656399    2.859304   -1.345419
  28 H     1.0000    0     1.008   -2.730902   -4.580669    6.588269
  29 H     1.0000    0     1.008    6.826649    4.092376    2.780749
  30 H     1.0000    0     1.008   -6.633646   -5.746630   -2.525890
  31 H     1.0000    0     1.008    4.618409    2.262630   -7.173973
  32 H     1.0000    0     1.008    1.069731    1.760692    4.990349
  33 H     1.0000    0     1.008   -8.002767   -4.861613    2.715012
  34 H     1.0000    0     1.008  -11.034252   -6.937333   -2.001137
  35 H     1.0000    0     1.008  -11.721651   -3.881570   -0.463429
  36 H     1.0000    0     1.008    2.970112   -0.684178  -10.278789
  37 H     1.0000    0     1.008    4.543272   -3.339232   -8.651611

--------------------------------
INTERNAL COORDINATES (ANGSTROEM)
--------------------------------
 O      0   0   0     0.000000000000     0.00000000     0.00000000
 O      1   0   0     6.299109015492     0.00000000     0.00000000
 C      1   2   0     2.432477184001    63.77259402     0.00000000
 C      3   1   2     1.486057732591    93.15218861     0.58783938
 C      2   1   3     2.429830812403    47.65529728   324.53868438
 C      5   2   1     1.392765127186   146.33297007    25.01054443
 C      3   1   2     2.447940990249   117.48890922   179.81581447
 C      7   3   1     1.393342339788    28.70754247   181.76941717
 C      1   2   3     1.365506986457    92.87369626   359.19242297
 C      4   3   1     1.400897592783   121.75614782   304.46020474
 C      2   1   3     1.364066290267    24.25140510   355.73556697
 C      5   2   1     1.515988967861    93.00848149   207.01517430
 C      7   3   1     1.517289739267   149.40515424   180.52066114
 C      7   3   1     1.393957432973    89.10043641     1.44921383
 C     10   4   3     1.386664822334   121.01521184   181.40245049
 C     14   7   3     1.387621463836   121.09489359   359.45779932
 C     12   5   2     1.507235868379   114.21874749   300.24080384
 C     13   7   3     1.503956518659   113.41037361    64.20053131
 C     17  12   5     1.329996141094   125.03280575   126.16949594
 C     18  13   7     1.327771338600   125.21433088   237.26710827
 H      6   5   2     1.084200528155   118.50434585   181.06672281
 H      8   7   3     1.084271814982   119.11598599   180.99577980
 H     10   4   3     1.083632300443   119.78749096   358.95962538
 H     12   5   2     1.095751179417   110.15606775    63.38451788
 H     12   5   2     1.093901947721   107.94876114   179.25040547
 H     13   7   3     1.094485766696   110.20517349   301.52244797
 H     13   7   3     1.095082216665   108.36178346   185.32231912
 H     14   7   3     1.084160995493   119.72830541   179.53278113
 H     15  10   4     1.082403607259   121.03503233   178.75423044
 H     16  14   7     1.082451347432   121.14006662   181.03770271
 H     17  12   5     1.087143487988   115.71324800   306.35562402
 H     18  13   7     1.087472218692   115.54120908    56.93676244
 H      1   2   3     0.966807294202    17.36414623   161.06656349
 H      2   1   3     0.968152591877   129.82187571   314.76640006
 H     19  17  12     1.082634704097   121.57877540   179.51202469
 H     19  17  12     1.085462116081   121.63393016     0.56525635
 H     20  18  13     1.083006032419   121.64038358   180.29223249
 H     20  18  13     1.084965599190   121.59069546   359.93385622

---------------------------
INTERNAL COORDINATES (A.U.)
---------------------------
 O      0   0   0     0.000000000000     0.00000000     0.00000000
 O      1   0   0    11.903590926994     0.00000000     0.00000000
 C      1   2   0     4.596715704773    63.77259402     0.00000000
 C      3   1   2     2.808242133793    93.15218861     0.58783938
 C      2   1   3     4.591714787204    47.65529728   324.53868438
 C      5   2   1     2.631944659258   146.33297007    25.01054443
 C      3   1   2     4.625938063570   117.48890922   179.81581447
 C      7   3   1     2.633035432997    28.70754247   181.76941717
 C      1   2   3     2.580434238359    92.87369626   359.19242297
 C      4   3   1     2.647312792030   121.75614782   304.46020474
 C      2   1   3     2.577711717119    24.25140510   355.73556697
 C      5   2   1     2.864803971302    93.00848149   207.01517430
 C      7   3   1     2.867262073023   149.40515424   180.52066114
 C      7   3   1     2.634197790662    89.10043641     1.44921383
 C     10   4   3     2.620416753754   121.01521184   181.40245049
 C     14   7   3     2.622224544201   121.09489359   359.45779932
 C     12   5   2     2.848263010460   114.21874749   300.24080384
 C     13   7   3     2.842065937590   113.41037361    64.20053131
 C     17  12   5     2.513328465839   125.03280575   126.16949594
 C     18  13   7     2.509124198423   125.21433088   237.26710827
 H      6   5   2     2.048842072465   118.50434585   181.06672281
 H      8   7   3     2.048976785046   119.11598599   180.99577980
 H     10   4   3     2.047768277709   119.78749096   358.95962538
 H     12   5   2     2.070669640018   110.15606775    63.38451788
 H     12   5   2     2.067175098555   107.94876114   179.25040547
 H     13   7   3     2.068278356530   110.20517349   301.52244797
 H     13   7   3     2.069405483624   108.36178346   185.32231912
 H     14   7   3     2.048767366561   119.72830541   179.53278113
 H     15  10   4     2.045446384088   121.03503233   178.75423044
 H     16  14   7     2.045536599940   121.14006662   181.03770271
 H     17  12   5     2.054403460574   115.71324800   306.35562402
 H     18  13   7     2.055024671576   115.54120908    56.93676244
 H      1   2   3     1.827001010319    17.36414623   161.06656349
 H      2   1   3     1.829543254494   129.82187571   314.76640006
 H     19  17  12     2.045883093823   121.57877540   179.51202469
 H     19  17  12     2.051226128140   121.63393016     0.56525635
 H     20  18  13     2.046584802657   121.64038358   180.29223249
 H     20  18  13     2.050287847195   121.59069546   359.93385622

---------------------
BASIS SET INFORMATION
---------------------
There are 3 groups of distinct atoms

 Group   1 Type O   : 11s6p2d1f contracted to 5s3p2d1f pattern {62111/411/11/1}
 Group   2 Type C   : 11s6p2d1f contracted to 5s3p2d1f pattern {62111/411/11/1}
 Group   3 Type H   : 5s1p contracted to 3s1p pattern {311/1}

Atom   0O    basis set group =>   1
Atom   1O    basis set group =>   1
Atom   2C    basis set group =>   2
Atom   3C    basis set group =>   2
Atom   4C    basis set group =>   2
Atom   5C    basis set group =>   2
Atom   6C    basis set group =>   2
Atom   7C    basis set group =>   2
Atom   8C    basis set group =>   2
Atom   9C    basis set group =>   2
Atom  10C    basis set group =>   2
Atom  11C    basis set group =>   2
Atom  12C    basis set group =>   2
Atom  13C    basis set group =>   2
Atom  14C    basis set group =>   2
Atom  15C    basis set group =>   2
Atom  16C    basis set group =>   2
Atom  17C    basis set group =>   2
Atom  18C    basis set group =>   2
Atom  19C    basis set group =>   2
Atom  20H    basis set group =>   3
Atom  21H    basis set group =>   3
Atom  22H    basis set group =>   3
Atom  23H    basis set group =>   3
Atom  24H    basis set group =>   3
Atom  25H    basis set group =>   3
Atom  26H    basis set group =>   3
Atom  27H    basis set group =>   3
Atom  28H    basis set group =>   3
Atom  29H    basis set group =>   3
Atom  30H    basis set group =>   3
Atom  31H    basis set group =>   3
Atom  32H    basis set group =>   3
Atom  33H    basis set group =>   3
Atom  34H    basis set group =>   3
Atom  35H    basis set group =>   3
Atom  36H    basis set group =>   3
Atom  37H    basis set group =>   3
---------------------------------
AUXILIARY/J BASIS SET INFORMATION
---------------------------------
There are 3 groups of distinct atoms

 Group   1 Type O   : 12s5p4d2f1g contracted to 6s4p3d1f1g pattern {711111/2111/211/2/1}
 Group   2 Type C   : 12s5p4d2f1g contracted to 6s4p3d1f1g pattern {711111/2111/211/2/1}
 Group   3 Type H   : 5s2p1d contracted to 3s1p1d pattern {311/2/1}

Atom   0O    basis set group =>   1
Atom   1O    basis set group =>   1
Atom   2C    basis set group =>   2
Atom   3C    basis set group =>   2
Atom   4C    basis set group =>   2
Atom   5C    basis set group =>   2
Atom   6C    basis set group =>   2
Atom   7C    basis set group =>   2
Atom   8C    basis set group =>   2
Atom   9C    basis set group =>   2
Atom  10C    basis set group =>   2
Atom  11C    basis set group =>   2
Atom  12C    basis set group =>   2
Atom  13C    basis set group =>   2
Atom  14C    basis set group =>   2
Atom  15C    basis set group =>   2
Atom  16C    basis set group =>   2
Atom  17C    basis set group =>   2
Atom  18C    basis set group =>   2
Atom  19C    basis set group =>   2
Atom  20H    basis set group =>   3
Atom  21H    basis set group =>   3
Atom  22H    basis set group =>   3
Atom  23H    basis set group =>   3
Atom  24H    basis set group =>   3
Atom  25H    basis set group =>   3
Atom  26H    basis set group =>   3
Atom  27H    basis set group =>   3
Atom  28H    basis set group =>   3
Atom  29H    basis set group =>   3
Atom  30H    basis set group =>   3
Atom  31H    basis set group =>   3
Atom  32H    basis set group =>   3
Atom  33H    basis set group =>   3
Atom  34H    basis set group =>   3
Atom  35H    basis set group =>   3
Atom  36H    basis set group =>   3
Atom  37H    basis set group =>   3


           ************************************************************
           *        Program running with 20 parallel MPI-processes    *
           *              working on a common directory               *
           ************************************************************
------------------------------------------------------------------------------
                             ORCA STARTUP CALCULATIONS
                           -- RI-GTO INTEGRALS CHOSEN --
------------------------------------------------------------------------------
------------------------------------------------------------------------------
                   ___                                                        
                  /   \      - P O W E R E D   B Y -                         
                 /     \                                                     
                 |  |  |   _    _      __       _____    __    __             
                 |  |  |  | |  | |    /  \     |  _  \  |  |  /  |          
                  \  \/   | |  | |   /    \    | | | |  |  | /  /          
                 / \  \   | |__| |  /  /\  \   | |_| |  |  |/  /          
                |  |  |   |  __  | /  /__\  \  |    /   |      \           
                |  |  |   | |  | | |   __   |  |    \   |  |\   \          
                \     /   | |  | | |  |  |  |  | |\  \  |  | \   \       
                 \___/    |_|  |_| |__|  |__|  |_| \__\ |__|  \__/        
                                                                              
                      - O R C A' S   B I G   F R I E N D -                    
                                      &                                       
                       - I N T E G R A L  F E E D E R -                       
                                                                              
 v1 FN, 2020, v2 2021, v3 2022-2024                                           
------------------------------------------------------------------------------


----------------------
SHARK INTEGRAL PACKAGE
----------------------

Number of atoms                             ...     38
Number of basis functions                   ...    728
Number of shells                            ...    292
Maximum angular momentum                    ...      3
Integral batch strategy                     ... SHARK/LIBINT Hybrid
RI-J (if used) integral strategy            ... SPLIT-RIJ (Revised 2003 algorithm where possible)
Printlevel                                  ...      1
Contraction scheme used                     ... SEGMENTED contraction
Prescreening option                         ... SCHWARTZ
   Thresh                                   ... 2.500e-11
   Tcut                                     ... 2.500e-12
   Tpresel                                  ... 2.500e-12 
Coulomb Range Separation                    ... NOT USED
Exchange Range Separation                   ... NOT USED
Multipole approximations                    ... NOT USED
Finite Nucleus Model                        ... NOT USED
CABS basis                                  ... NOT available
Auxiliary Coulomb fitting basis             ... AVAILABLE
   # of basis functions in Aux-J            ...   1178
   # of shells in Aux-J                     ...    390
   Maximum angular momentum in Aux-J        ...      4
Auxiliary J/K fitting basis                 ... NOT available
Auxiliary Correlation fitting basis         ... NOT available
Auxiliary 'external' fitting basis          ... NOT available

Checking pre-screening integrals            ... done (  0.0 sec) Dimension = 292
Check shell pair data                       ... done (  0.0 sec)
Shell pair information
Shell pair cut-off parameter TPreSel        ...   2.5e-12
Total number of shell pairs                 ...     42778
Shell pairs after pre-screening             ...     29571
Total number of primitive shell pairs       ...    129780
Primitive shell pairs kept                  ...     60533
          la=0 lb=0:   7975 shell pairs
          la=1 lb=0:   8635 shell pairs
          la=1 lb=1:   2354 shell pairs
          la=2 lb=0:   4132 shell pairs
          la=2 lb=1:   2264 shell pairs
          la=2 lb=2:    561 shell pairs
          la=3 lb=0:   1939 shell pairs
          la=3 lb=1:   1079 shell pairs
          la=3 lb=2:    503 shell pairs
          la=3 lb=3:    129 shell pairs

Calculating one electron integrals          ... done (  0.0 sec)
Calculating RI/J V-Matrix + Cholesky decomp.... done (  0.1 sec)
Calculating Nuclear repulsion               ... done (  0.0 sec) ENN=   1414.262595399553 Eh

Diagonalization of the overlap matrix:
Smallest eigenvalue                        ... 6.564e-06
Time for diagonalization                   ...    0.063 sec
Threshold for overlap eigenvalues          ... 1.000e-07
Number of eigenvalues below threshold      ... 0
Time for construction of square roots      ...    0.029 sec
Total time needed                          ...    0.096 sec

-------------------
DFT GRID GENERATION
-------------------

General Integration Accuracy     IntAcc      ... 4.388
Radial Grid Type                 RadialGrid  ... OptM3 with GC (2021)
Angular Grid (max. ang.)         AngularGrid ... 4 (Lebedev-302)
Angular grid pruning method      GridPruning ... 4 (adaptive)
Weight generation scheme         WeightScheme... mBecke (2022)
Basis function cutoff            BFCut       ... 1.0000e-11
Integration weight cutoff        WCut        ... 1.0000e-14
Partially contracted basis set               ... off
Rotationally invariant grid construction     ... off
Angular grids for H and He will be reduced by one unit

Total number of grid points                  ...   177197
Total number of batches                      ...     2788
Average number of points per batch           ...       63
Average number of grid points per atom       ...     4663

--------------------
COSX GRID GENERATION
--------------------

GRIDX 1
-------
General Integration Accuracy     IntAcc      ... 3.816
Radial Grid Type                 RadialGrid  ... OptM3 with GC (2021)
Angular Grid (max. ang.)         AngularGrid ... 1 (Lebedev-50)
Angular grid pruning method      GridPruning ... 4 (adaptive)
Weight generation scheme         WeightScheme... mBecke (2022)
Basis function cutoff            BFCut       ... 1.0000e-11
Integration weight cutoff        WCut        ... 1.0000e-14
Partially contracted basis set               ... on
Rotationally invariant grid construction     ... off
Angular grids for H and He will be reduced by one unit

Total number of grid points                  ...    22503
Total number of batches                      ...      198
Average number of points per batch           ...      113
Average number of grid points per atom       ...      592
UseSFitting                                  ... on

GRIDX 2
-------
General Integration Accuracy     IntAcc      ... 4.020
Radial Grid Type                 RadialGrid  ... OptM3 with GC (2021)
Angular Grid (max. ang.)         AngularGrid ... 2 (Lebedev-110)
Angular grid pruning method      GridPruning ... 4 (adaptive)
Weight generation scheme         WeightScheme... mBecke (2022)
Basis function cutoff            BFCut       ... 1.0000e-11
Integration weight cutoff        WCut        ... 1.0000e-14
Partially contracted basis set               ... on
Rotationally invariant grid construction     ... off
Angular grids for H and He will be reduced by one unit

Total number of grid points                  ...    48602
Total number of batches                      ...      402
Average number of points per batch           ...      120
Average number of grid points per atom       ...     1279
UseSFitting                                  ... on

GRIDX 3
-------
General Integration Accuracy     IntAcc      ... 4.338
Radial Grid Type                 RadialGrid  ... OptM3 with GC (2021)
Angular Grid (max. ang.)         AngularGrid ... 3 (Lebedev-194)
Angular grid pruning method      GridPruning ... 4 (adaptive)
Weight generation scheme         WeightScheme... mBecke (2022)
Basis function cutoff            BFCut       ... 1.0000e-11
Integration weight cutoff        WCut        ... 1.0000e-14
Partially contracted basis set               ... on
Rotationally invariant grid construction     ... off
Angular grids for H and He will be reduced by one unit

Total number of grid points                  ...   106254
Total number of batches                      ...      850
Average number of points per batch           ...      125
Average number of grid points per atom       ...     2796
UseSFitting                                  ... on
Initializing property integral containers    ... done (  0.0 sec)

SHARK setup successfully completed in   2.1 seconds

Maximum memory used throughout the entire STARTUP-calculation: 70.4 MB


           ************************************************************
           *        Program running with 20 parallel MPI-processes    *
           *              working on a common directory               *
           ************************************************************
-------------------------------------------------------------------------------
                                 ORCA GUESS
                   Start orbitals & Density for SCF / CASSCF
-------------------------------------------------------------------------------

------------
SCF SETTINGS
------------
Hamiltonian:
 Density Functional     Method          .... DFT(GTOs)
 Exchange Functional    Exchange        .... B88
   X-Alpha parameter    XAlpha          ....  0.666667
   Becke's b parameter  XBeta           ....  0.004200
 Correlation Functional Correlation     .... LYP
 LDA part of GGA corr.  LDAOpt          .... VWN-5
 Gradients option       PostSCFGGA      .... off
 Hybrid DFT is turned on
   Fraction HF Exchange ScalHFX         ....  0.200000
   Scaling of DF-GGA-X  ScalDFX         ....  0.720000
   Scaling of DF-GGA-C  ScalDFC         ....  0.810000
   Scaling of DF-LDA-C  ScalLDAC        ....  1.000000
   Perturbative correction              ....  0.000000
   NL short-range parameter             ....  4.800000
 RI-approximation to the Coulomb term is turned on
   Number of AuxJ basis functions       .... 1178
   RIJ-COSX (HFX calculated with COS-X)).... on


General Settings:
 Integral files         IntName         .... honokiol2
 Hartree-Fock type      HFTyp           .... RHF
 Total Charge           Charge          ....    0
 Multiplicity           Mult            ....    1
 Number of Electrons    NEL             ....  142
 Basis Dimension        Dim             ....  728
 Nuclear Repulsion      ENuc            ....   1414.2625953996 Eh

Convergence Acceleration:
 AO-DIIS                CNVDIIS         .... on
   Start iteration      DIISMaxIt       ....    12
   Startup error        DIISStart       ....  0.200000
   # of expansion vecs  DIISMaxEq       ....     5
   Bias factor          DIISBfac        ....   1.050
   Max. coefficient     DIISMaxC        ....  10.000
 MO-DIIS                CNVKDIIS        .... off
 Trust-Rad. Augm. Hess. CNVTRAH         .... auto
   Auto Start mean grad. ratio tolernc. ....  1.125000
   Auto Start start iteration           ....    50
   Auto Start num. interpolation iter.  ....    10
   Max. Number of Micro iterations      ....    24
   Max. Number of Macro iterations      .... Maxiter - #DIIS iter
   Number of Davidson start vectors     ....     2
   Converg. threshold    (grad. norm)   ....   1.000e-05
   Grad. Scal. Fac. for Micro threshold ....   0.100
   Minimum threshold for Micro iter.    ....   1.000e-02
   NR start threshold (gradient norm)   ....   1.000e-04
   Initial trust radius                 ....   0.400
   Minimum AH scaling param. (alpha)    ....   1.000
   Maximum AH scaling param. (alpha)    .... 1000.000
   Quad. conv. algorithm                .... NR
   White noise on init. David. guess    .... on
   Maximum white noise                  ....   0.010
   Pseudo random numbers                .... off
   Inactive MOs                         .... canonical
   Orbital update algorithm             .... Taylor
   Preconditioner                       .... Diag
   Full preconditioner red. dimension   ....   250
 SOSCF                  CNVSOSCF        .... on
   Start iteration      SOSCFMaxIt      ....   150
   Startup grad/error   SOSCFStart      ....  0.003300
   Hessian update       SOSCFHessUp     .... L-BFGS
 Level Shifting         CNVShift        .... on
   Level shift para.    LevelShift      ....    0.2500
   Turn off err/grad.   ShiftErr        ....    0.0010
 Zerner damping         CNVZerner       .... off
 Static damping         CNVDamp         .... on
   Fraction old density DampFac         ....    0.7000
   Max. Damping (<1)    DampMax         ....    0.9800
   Min. Damping (>=0)   DampMin         ....    0.0000
   Turn off err/grad.   DampErr         ....    0.1000

SCF Procedure:
 Maximum # iterations   MaxIter         ....   125
 SCF integral mode      SCFMode         .... Direct
   Integral package                     .... SHARK and LIBINT hybrid scheme
 Reset frequency        DirectResetFreq ....    20
 Integral Threshold     Thresh          ....  2.500e-11 Eh
 Primitive CutOff       TCut            ....  2.500e-12 Eh

Convergence Tolerance:
 Convergence Check Mode ConvCheckMode   .... Total+1el-Energy
 Convergence forced     ConvForced      .... 0
 Energy Change          TolE            ....  1.000e-08 Eh
 1-El. energy change                    ....  1.000e-05 Eh
 Orbital Gradient       TolG            ....  1.000e-05
 Orbital Rotation angle TolX            ....  1.000e-05
 DIIS Error             TolErr          ....  5.000e-07

------------------------------
INITIAL GUESS: MODEL POTENTIAL
------------------------------
Loading Hartree-Fock densities                     ... done
Calculating cut-offs                               ... done
Initializing the effective Hamiltonian             ... done
Setting up the integral package (SHARK)            ... done
Starting the Coulomb interaction                   ... done (   0.1 sec)
Making the grid                                    ... done (   0.2 sec)
Mapping shells                                     ... done
Starting the XC term evaluation                    ... done (   0.1 sec)
  promolecular density results
     # of electrons  =    141.999418822
     EX              =   -114.323423667
     EC              =     -4.775518913
     EX+EC           =   -119.098942580
Transforming the Hamiltonian                       ... done (   0.0 sec)
Diagonalizing the Hamiltonian                      ... done (   0.1 sec)
Back transforming the eigenvectors                 ... done (   0.0 sec)
Now organizing SCF variables                       ... done
                      ------------------
                      INITIAL GUESS DONE (   0.5 sec)
                      ------------------
             **** ENERGY FILE WAS UPDATED (honokiol2.en.tmp) ****
Finished Guess after   1.2 sec
Maximum memory used throughout the entire GUESS-calculation: 54.9 MB


           ************************************************************
           *        Program running with 20 parallel MPI-processes    *
           *              working on a common directory               *
           ************************************************************

-------------------------------------------------------------------------------------------
                                      ORCA LEAN-SCF
                              memory conserving SCF solver
-------------------------------------------------------------------------------------------

--------------------
CPCM SOLVATION MODEL
--------------------
CPCM parameters:
  Epsilon                                         ...      80.1510
  Refrac                                          ...       1.3328
  Rsolv                                           ...       1.3000
  Surface type                                    ... GAUSSIAN VDW
  Discretization scheme                           ... Constant charge density
    Threshold for H atoms                         ...       5.0000 (charges/Ang^2)
    Threshold for non-H atoms                     ...       5.0000 (charges/Ang^2)
  Epsilon function type                           ...         CPCM
Solvent:                                          ... WATER
Radii:
  Scheme                                          ... Element-dependent radii
  Radius for O  used is    3.4469 Bohr (=   1.8240 Ang.)
  Radius for C  used is    3.8550 Bohr (=   2.0400 Ang.)
  Radius for H  used is    2.4944 Bohr (=   1.3200 Ang.)
Calculating surface                               ...        done! (  0.0s)
Cavity surface points                             ...         3369
Cavity Volume                                     ...    2289.3159
Cavity Surface-area                               ...    1194.1256
Calculating surface distance matrix               ...        done! (  0.1s)
Performing Cholesky decomposition & store         ...        done! (  0.2s)
Overall time for CPCM initialization              ...                 0.3s

----------------------------------------D-I-I-S--------------------------------------------
Iteration    Energy (Eh)           Delta-E    RMSDP     MaxDP     DIISErr   Damp  Time(sec)
-------------------------------------------------------------------------------------------
               ***  Starting incremental Fock matrix formation  ***
    1    -846.4550483897905906     0.00e+00  1.57e-03  1.30e-01  2.29e-01  0.700   3.9
    2    -846.6906094154251150    -2.36e-01  1.58e-03  1.46e-01  1.02e-01  0.700   2.5
                               ***Turning on AO-DIIS***
    3    -846.7945970015948660    -1.04e-01  6.22e-04  4.61e-02  3.76e-02  0.700   2.3
    4    -846.8545851077315092    -6.00e-02  9.02e-04  5.16e-02  2.21e-02  0.000   2.3
    5    -846.9826459791502202    -1.28e-01  2.98e-04  2.67e-02  4.46e-03  0.000   2.3
                              *** Initializing SOSCF ***
---------------------------------------S-O-S-C-F--------------------------------------
Iteration    Energy (Eh)           Delta-E    RMSDP     MaxDP     MaxGrad    Time(sec)
--------------------------------------------------------------------------------------
    6    -846.9832406876098503    -5.95e-04  1.11e-04  9.54e-03  1.56e-03     2.3
               *** Restarting incremental Fock matrix formation ***
    7    -846.9832772465174457    -3.66e-05  7.35e-05  4.73e-03  1.86e-04     3.8
    8    -846.9832771269943805     1.20e-07  1.38e-05  7.12e-04  3.18e-04     2.8
    9    -846.9832812399972681    -4.11e-06  1.57e-05  1.10e-03  4.72e-05     2.6
   10    -846.9832812462382208    -6.24e-09  3.14e-06  3.04e-04  4.46e-05     2.5
                 **** Energy Check signals convergence ****

               *****************************************************
               *                     SUCCESS                       *
               *           SCF CONVERGED AFTER  10 CYCLES          *
               *****************************************************

Recomputing exchange energy using gridx3       ... done (    5.354 sec)
Old exchange energy                            :    -23.255912776 Eh
New exchange energy                            :    -23.255919974 Eh
Exchange energy change after final integration :     -0.000007199 Eh
Total energy after final integration           :   -846.983288445 Eh
             **** ENERGY FILE WAS UPDATED (honokiol2.en.tmp) ****

----------------
TOTAL SCF ENERGY
----------------

Total Energy       :       -846.98328844500179 Eh          -23047.58700 eV

Components:
Nuclear Repulsion  :       1414.26259539955254 Eh           38484.04171 eV
Electronic Energy  :      -2261.22923316037031 Eh          -61531.17562 eV
One Electron Energy:      -3956.67889368775832 Eh         -107666.70637 eV
Two Electron Energy:       1695.44966052738823 Eh           46135.53075 eV
CPCM Dielectric    :         -0.01664348542076 Eh              -0.45289 eV

Virial components:
Potential Energy   :      -1690.13728149173357 Eh          -45990.97357 eV
Kinetic Energy     :        843.15399304673190 Eh           22943.38657 eV
Virial Ratio       :          2.00454163228764

DFT components:
N(Alpha)           :       71.000068288600 electrons
N(Beta)            :       71.000068288600 electrons
N(Total)           :      142.000136577200 electrons
E(X)               :      -92.383072370115 Eh       
E(C)               :       -5.640559388662 Eh       
E(XC)              :      -98.023631758778 Eh       

CPCM Solvation Model Properties:
Surface-charge          :         -0.03741573744854
Corrected charge        :         -0.00000000000000
Outlying charge corr.   :          0.00007379899930 Eh               0.00201 eV
Free-energy (cav+disp)  :  This term is not implemented in the current solvation scheme

---------------
SCF CONVERGENCE
---------------

  Last Energy change         ...    6.2410e-09  Tolerance :   1.0000e-08
  Last MAX-Density change    ...    3.0414e-04  Tolerance :   1.0000e-07
  Last RMS-Density change    ...    3.1376e-06  Tolerance :   5.0000e-09
  Last DIIS Error            ...    1.5614e-03  Tolerance :   5.0000e-07
  Last Orbital Gradient      ...    4.4581e-05  Tolerance :   1.0000e-05
  Last Orbital Rotation      ...    9.1550e-05  Tolerance :   1.0000e-05


----------------
ORBITAL ENERGIES
----------------

  NO   OCC          E(Eh)            E(eV) 
   0   2.0000     -19.154483      -521.2200 
   1   2.0000     -19.153972      -521.2061 
   2   2.0000     -10.236456      -278.5481 
   3   2.0000     -10.233532      -278.4686 
   4   2.0000     -10.185749      -277.1683 
   5   2.0000     -10.183893      -277.1178 
   6   2.0000     -10.183415      -277.1048 
   7   2.0000     -10.182250      -277.0731 
   8   2.0000     -10.180243      -277.0185 
   9   2.0000     -10.177920      -276.9553 
  10   2.0000     -10.175966      -276.9021 
  11   2.0000     -10.175114      -276.8789 
  12   2.0000     -10.172624      -276.8112 
  13   2.0000     -10.171986      -276.7938 
  14   2.0000     -10.171081      -276.7692 
  15   2.0000     -10.170905      -276.7644 
  16   2.0000     -10.170749      -276.7602 
  17   2.0000     -10.168064      -276.6871 
  18   2.0000     -10.167581      -276.6740 
  19   2.0000     -10.158120      -276.4165 
  20   2.0000      -1.062250       -28.9053 
  21   2.0000      -1.061425       -28.8828 
  22   2.0000      -0.871162       -23.7055 
  23   2.0000      -0.854224       -23.2446 
  24   2.0000      -0.810780       -22.0624 
  25   2.0000      -0.797988       -21.7144 
  26   2.0000      -0.775293       -21.0968 
  27   2.0000      -0.757454       -20.6114 
  28   2.0000      -0.745117       -20.2757 
  29   2.0000      -0.723310       -19.6823 
  30   2.0000      -0.686744       -18.6873 
  31   2.0000      -0.676408       -18.4060 
  32   2.0000      -0.636003       -17.3065 
  33   2.0000      -0.616795       -16.7838 
  34   2.0000      -0.597141       -16.2490 
  35   2.0000      -0.588971       -16.0267 
  36   2.0000      -0.564642       -15.3647 
  37   2.0000      -0.552802       -15.0425 
  38   2.0000      -0.549018       -14.9395 
  39   2.0000      -0.535944       -14.5838 
  40   2.0000      -0.495711       -13.4890 
  41   2.0000      -0.493702       -13.4343 
  42   2.0000      -0.480642       -13.0789 
  43   2.0000      -0.469967       -12.7885 
  44   2.0000      -0.457506       -12.4494 
  45   2.0000      -0.443786       -12.0760 
  46   2.0000      -0.438809       -11.9406 
  47   2.0000      -0.432914       -11.7802 
  48   2.0000      -0.430598       -11.7172 
  49   2.0000      -0.429050       -11.6751 
  50   2.0000      -0.416247       -11.3267 
  51   2.0000      -0.414443       -11.2776 
  52   2.0000      -0.410623       -11.1736 
  53   2.0000      -0.405381       -11.0310 
  54   2.0000      -0.397548       -10.8178 
  55   2.0000      -0.392425       -10.6784 
  56   2.0000      -0.371624       -10.1124 
  57   2.0000      -0.366552        -9.9744 
  58   2.0000      -0.357812        -9.7366 
  59   2.0000      -0.357331        -9.7235 
  60   2.0000      -0.349948        -9.5226 
  61   2.0000      -0.347290        -9.4502 
  62   2.0000      -0.337953        -9.1962 
  63   2.0000      -0.333194        -9.0667 
  64   2.0000      -0.326479        -8.8839 
  65   2.0000      -0.273882        -7.4527 
  66   2.0000      -0.266670        -7.2565 
  67   2.0000      -0.261544        -7.1170 
  68   2.0000      -0.257217        -6.9992 
  69   2.0000      -0.232481        -6.3261 
  70   2.0000      -0.215562        -5.8657 
  71   0.0000      -0.028036        -0.7629 
  72   0.0000      -0.023908        -0.6506 
  73   0.0000      -0.005506        -0.1498 
  74   0.0000       0.002314         0.0630 
  75   0.0000       0.003378         0.0919 
  76   0.0000       0.022666         0.6168 
  77   0.0000       0.048296         1.3142 
  78   0.0000       0.055431         1.5084 
  79   0.0000       0.058205         1.5838 
  80   0.0000       0.073604         2.0029 
  81   0.0000       0.076430         2.0798 
*Only the first 10 virtual orbitals were printed.

                    ********************************
                    * MULLIKEN POPULATION ANALYSIS *
                    ********************************

-----------------------
MULLIKEN ATOMIC CHARGES
-----------------------
   0 O :   -0.433251
   1 O :   -0.433548
   2 C :    0.130854
   3 C :    0.075295
   4 C :    0.048634
   5 C :   -0.297256
   6 C :    0.097366
   7 C :   -0.273747
   8 C :    0.210560
   9 C :   -0.250356
  10 C :    0.267871
  11 C :   -0.223033
  12 C :   -0.173797
  13 C :   -0.179187
  14 C :   -0.247789
  15 C :   -0.264048
  16 C :   -0.188378
  17 C :   -0.131243
  18 C :   -0.295827
  19 C :   -0.327742
  20 H :    0.147323
  21 H :    0.146332
  22 H :    0.161424
  23 H :    0.142061
  24 H :    0.134491
  25 H :    0.116031
  26 H :    0.124960
  27 H :    0.131423
  28 H :    0.130951
  29 H :    0.127817
  30 H :    0.136269
  31 H :    0.127358
  32 H :    0.353657
  33 H :    0.348942
  34 H :    0.145947
  35 H :    0.145754
  36 H :    0.136719
  37 H :    0.131159
Sum of atomic charges:    0.0000000

--------------------------------
MULLIKEN REDUCED ORBITAL CHARGES
--------------------------------
  0 O s       :     3.758650  s :     3.758650
      pz      :     1.483421  p :     4.642364
      px      :     1.425788
      py      :     1.733155
      dz2     :     0.010118  d :     0.030549
      dxz     :     0.004134
      dyz     :     0.006664
      dx2y2   :     0.004026
      dxy     :     0.005607
      f0      :     0.000249  f :     0.001687
      f+1     :     0.000384
      f-1     :     0.000260
      f+2     :     0.000195
      f-2     :     0.000166
      f+3     :     0.000071
      f-3     :     0.000362

  1 O s       :     3.756860  s :     3.756860
      pz      :     1.560269  p :     4.644730
      px      :     1.347290
      py      :     1.737172
      dz2     :     0.005145  d :     0.030264
      dxz     :     0.012126
      dyz     :     0.003651
      dx2y2   :     0.004507
      dxy     :     0.004835
      f0      :     0.000020  f :     0.001694
      f+1     :     0.000382
      f-1     :     0.000048
      f+2     :     0.000305
      f-2     :     0.000222
      f+3     :     0.000319
      f-3     :     0.000399

  2 C s       :     3.237625  s :     3.237625
      pz      :     0.829660  p :     2.514313
      px      :     0.762910
      py      :     0.921744
      dz2     :     0.022424  d :     0.107577
      dxz     :     0.025287
      dyz     :     0.019158
      dx2y2   :     0.021004
      dxy     :     0.019704
      f0      :     0.001578  f :     0.009631
      f+1     :     0.001399
      f-1     :     0.001391
      f+2     :     0.001525
      f-2     :     0.001452
      f+3     :     0.001168
      f-3     :     0.001119

  3 C s       :     3.260886  s :     3.260886
      pz      :     0.874099  p :     2.533847
      px      :     0.732527
      py      :     0.927221
      dz2     :     0.027383  d :     0.120282
      dxz     :     0.027107
      dyz     :     0.019595
      dx2y2   :     0.023045
      dxy     :     0.023153
      f0      :     0.001465  f :     0.009689
      f+1     :     0.002188
      f-1     :     0.000685
      f+2     :     0.001274
      f-2     :     0.001764
      f+3     :     0.001137
      f-3     :     0.001175

  4 C s       :     3.218791  s :     3.218791
      pz      :     0.843697  p :     2.604089
      px      :     0.842542
      py      :     0.917850
      dz2     :     0.029998  d :     0.118829
      dxz     :     0.025103
      dyz     :     0.019451
      dx2y2   :     0.021444
      dxy     :     0.022833
      f0      :     0.001514  f :     0.009658
      f+1     :     0.001977
      f-1     :     0.000770
      f+2     :     0.001512
      f-2     :     0.001555
      f+3     :     0.001424
      f-3     :     0.000905

  5 C s       :     3.281302  s :     3.281302
      pz      :     0.997657  p :     2.921642
      px      :     0.948568
      py      :     0.975417
      dz2     :     0.017196  d :     0.086704
      dxz     :     0.018634
      dyz     :     0.011873
      dx2y2   :     0.016446
      dxy     :     0.022555
      f0      :     0.000631  f :     0.007607
      f+1     :     0.001530
      f-1     :     0.000758
      f+2     :     0.001066
      f-2     :     0.001237
      f+3     :     0.001372
      f-3     :     0.001012

  6 C s       :     3.176503  s :     3.176503
      pz      :     0.853731  p :     2.590502
      px      :     0.839746
      py      :     0.897025
      dz2     :     0.028622  d :     0.125855
      dxz     :     0.029607
      dyz     :     0.020666
      dx2y2   :     0.026364
      dxy     :     0.020595
      f0      :     0.001366  f :     0.009774
      f+1     :     0.001766
      f-1     :     0.001435
      f+2     :     0.001527
      f-2     :     0.001322
      f+3     :     0.001428
      f-3     :     0.000930

  7 C s       :     3.286190  s :     3.286190
      pz      :     0.949832  p :     2.898377
      px      :     0.959587
      py      :     0.988958
      dz2     :     0.016411  d :     0.081655
      dxz     :     0.019715
      dyz     :     0.018667
      dx2y2   :     0.011693
      dxy     :     0.015169
      f0      :     0.001429  f :     0.007525
      f+1     :     0.001209
      f-1     :     0.000806
      f+2     :     0.000912
      f-2     :     0.001414
      f+3     :     0.001228
      f-3     :     0.000527

  8 C s       :     3.048162  s :     3.048162
      pz      :     0.764515  p :     2.560259
      px      :     0.901511
      py      :     0.894233
      dz2     :     0.039907  d :     0.165435
      dxz     :     0.033964
      dyz     :     0.036084
      dx2y2   :     0.030347
      dxy     :     0.025134
      f0      :     0.003119  f :     0.015583
      f+1     :     0.002616
      f-1     :     0.002669
      f+2     :     0.002310
      f-2     :     0.002012
      f+3     :     0.001710
      f-3     :     0.001147

  9 C s       :     3.276589  s :     3.276589
      pz      :     0.938506  p :     2.880881
      px      :     0.988613
      py      :     0.953762
      dz2     :     0.015758  d :     0.085600
      dxz     :     0.029049
      dyz     :     0.011182
      dx2y2   :     0.018244
      dxy     :     0.011368
      f0      :     0.001392  f :     0.007286
      f+1     :     0.001144
      f-1     :     0.000682
      f+2     :     0.001250
      f-2     :     0.000979
      f+3     :     0.001262
      f-3     :     0.000576

 10 C s       :     3.024772  s :     3.024772
      pz      :     0.887997  p :     2.525389
      px      :     0.748713
      py      :     0.888679
      dz2     :     0.031954  d :     0.166453
      dxz     :     0.045596
      dyz     :     0.023584
      dx2y2   :     0.032515
      dxy     :     0.032804
      f0      :     0.002076  f :     0.015515
      f+1     :     0.003145
      f-1     :     0.000878
      f+2     :     0.001844
      f-2     :     0.002926
      f+3     :     0.002707
      f-3     :     0.001940

 11 C s       :     3.268072  s :     3.268072
      pz      :     0.995719  p :     2.869493
      px      :     0.950113
      py      :     0.923661
      dz2     :     0.011479  d :     0.079999
      dxz     :     0.014885
      dyz     :     0.019917
      dx2y2   :     0.013439
      dxy     :     0.020279
      f0      :     0.000323  f :     0.005469
      f+1     :     0.000858
      f-1     :     0.000504
      f+2     :     0.000846
      f-2     :     0.001273
      f+3     :     0.000651
      f-3     :     0.001014

 12 C s       :     3.237482  s :     3.237482
      pz      :     0.866801  p :     2.849085
      px      :     0.961939
      py      :     1.020346
      dz2     :     0.030247  d :     0.081672
      dxz     :     0.014875
      dyz     :     0.015097
      dx2y2   :     0.012873
      dxy     :     0.008579
      f0      :     0.001081  f :     0.005558
      f+1     :     0.001392
      f-1     :     0.000862
      f+2     :     0.000696
      f-2     :     0.000663
      f+3     :     0.000102
      f-3     :     0.000762

 13 C s       :     3.235142  s :     3.235142
      pz      :     0.936036  p :     2.852250
      px      :     0.960926
      py      :     0.955287
      dz2     :     0.024129  d :     0.084406
      dxz     :     0.017668
      dyz     :     0.018953
      dx2y2   :     0.013245
      dxy     :     0.010411
      f0      :     0.001399  f :     0.007389
      f+1     :     0.000927
      f-1     :     0.001253
      f+2     :     0.001252
      f-2     :     0.001164
      f+3     :     0.000508
      f-3     :     0.000885

 14 C s       :     3.305549  s :     3.305549
      pz      :     0.973022  p :     2.859149
      px      :     0.909941
      py      :     0.976185
      dz2     :     0.012852  d :     0.075520
      dxz     :     0.017908
      dyz     :     0.010900
      dx2y2   :     0.013905
      dxy     :     0.019955
      f0      :     0.000607  f :     0.007571
      f+1     :     0.001480
      f-1     :     0.000802
      f+2     :     0.001048
      f-2     :     0.001270
      f+3     :     0.001375
      f-3     :     0.000989

 15 C s       :     3.308813  s :     3.308813
      pz      :     0.948952  p :     2.873844
      px      :     0.939938
      py      :     0.984954
      dz2     :     0.015037  d :     0.073860
      dxz     :     0.016166
      dyz     :     0.017116
      dx2y2   :     0.013373
      dxy     :     0.012168
      f0      :     0.001364  f :     0.007530
      f+1     :     0.001176
      f-1     :     0.000838
      f+2     :     0.000979
      f-2     :     0.001405
      f+3     :     0.001242
      f-3     :     0.000528

 16 C s       :     3.260950  s :     3.260950
      pz      :     0.995704  p :     2.838296
      px      :     0.948407
      py      :     0.894186
      dz2     :     0.004431  d :     0.082322
      dxz     :     0.019605
      dyz     :     0.013011
      dx2y2   :     0.015798
      dxy     :     0.029477
      f0      :     0.000866  f :     0.006811
      f+1     :     0.000447
      f-1     :     0.000520
      f+2     :     0.001090
      f-2     :     0.000979
      f+3     :     0.001406
[...]
      dx2y2   :     0.055908
      dxy     :     0.064233
      f0      :     0.007328  f :     0.042723
      f+1     :     0.007781
      f-1     :     0.005623
      f+2     :     0.006614
      f-2     :     0.005053
      f+3     :     0.005743
      f-3     :     0.004581

 16 C s       :     2.799287  s :     2.799287
      pz      :     0.886858  p :     2.959803
      px      :     1.084976
      py      :     0.987968
      dz2     :     0.025704  d :     0.398569
      dxz     :     0.068569
      dyz     :     0.054317
      dx2y2   :     0.103516
      dxy     :     0.146463
      f0      :     0.003675  f :     0.041236
      f+1     :     0.003731
      f-1     :     0.003281
      f+2     :     0.006793
      f-2     :     0.003496
      f+3     :     0.009703
      f-3     :     0.010558

 17 C s       :     2.799039  s :     2.799039
      pz      :     1.013737  p :     2.955817
      px      :     0.930889
      py      :     1.011191
      dz2     :     0.120914  d :     0.397120
      dxz     :     0.072399
      dyz     :     0.083371
      dx2y2   :     0.080696
      dxy     :     0.039740
      f0      :     0.006780  f :     0.041457
      f+1     :     0.006852
      f-1     :     0.006619
      f+2     :     0.008047
      f-2     :     0.006690
      f+3     :     0.002769
      f-3     :     0.003700

 18 C s       :     2.859726  s :     2.859726
      pz      :     0.966314  p :     3.091219
      px      :     1.098839
      py      :     1.026065
      dz2     :     0.014615  d :     0.240264
      dxz     :     0.046471
      dyz     :     0.010008
      dx2y2   :     0.068863
      dxy     :     0.100307
      f0      :     0.003334  f :     0.027791
      f+1     :     0.003102
      f-1     :     0.001088
      f+2     :     0.003997
      f-2     :     0.002636
      f+3     :     0.007094
      f-3     :     0.006539

 19 C s       :     2.858064  s :     2.858064
      pz      :     1.056444  p :     3.105598
      px      :     1.006848
      py      :     1.042306
      dz2     :     0.061050  d :     0.238499
      dxz     :     0.039251
      dyz     :     0.063243
      dx2y2   :     0.042694
      dxy     :     0.032261
      f0      :     0.004107  f :     0.027893
      f+1     :     0.005155
      f-1     :     0.004316
      f+2     :     0.004916
      f-2     :     0.004887
      f+3     :     0.001944
      f-3     :     0.002568

 20 H s       :     0.781396  s :     0.781396
      pz      :     0.031784  p :     0.059554
      px      :     0.010615
      py      :     0.017156

 21 H s       :     0.782449  s :     0.782449
      pz      :     0.018071  p :     0.059390
      px      :     0.017357
      py      :     0.023962

 22 H s       :     0.783332  s :     0.783332
      pz      :     0.020609  p :     0.059766
      px      :     0.026089
      py      :     0.013068

 23 H s       :     0.785646  s :     0.785646
      pz      :     0.016319  p :     0.058481
      px      :     0.023949
      py      :     0.018213

 24 H s       :     0.782779  s :     0.782779
      pz      :     0.027250  p :     0.058487
      px      :     0.013915
      py      :     0.017321

 25 H s       :     0.792170  s :     0.792170
      pz      :     0.011852  p :     0.057928
      px      :     0.013314
      py      :     0.032762

 26 H s       :     0.789771  s :     0.789771
      pz      :     0.011872  p :     0.058007
      px      :     0.033055
      py      :     0.013080

 27 H s       :     0.788544  s :     0.788544
      pz      :     0.013718  p :     0.058976
      px      :     0.029849
      py      :     0.015410

 28 H s       :     0.786536  s :     0.786536
      pz      :     0.031395  p :     0.059908
      px      :     0.010835
      py      :     0.017678

 29 H s       :     0.788480  s :     0.788480
      pz      :     0.018589  p :     0.059845
      px      :     0.017023
      py      :     0.024234

 30 H s       :     0.793653  s :     0.793653
      pz      :     0.016197  p :     0.059250
      px      :     0.021068
      py      :     0.021984

 31 H s       :     0.797971  s :     0.797971
      pz      :     0.011348  p :     0.058769
      px      :     0.012595
      py      :     0.034826

 32 H s       :     0.648710  s :     0.648710
      pz      :     0.031169  p :     0.155963
      px      :     0.077259
      py      :     0.047535

 33 H s       :     0.649029  s :     0.649029
      pz      :     0.069526  p :     0.157949
      px      :     0.047595
      py      :     0.040829

 34 H s       :     0.810481  s :     0.810481
      pz      :     0.015911  p :     0.062399
      px      :     0.012899
      py      :     0.033589

 35 H s       :     0.809202  s :     0.809202
      pz      :     0.017484  p :     0.062203
      px      :     0.022338
      py      :     0.022380

 36 H s       :     0.814399  s :     0.814399
      pz      :     0.025123  p :     0.062184
      px      :     0.016542
      py      :     0.020519

 37 H s       :     0.814558  s :     0.814558
      pz      :     0.011844  p :     0.061890
      px      :     0.013813
      py      :     0.036233



                      *****************************
                      * MAYER POPULATION ANALYSIS *
                      *****************************

  NA   - Mulliken gross atomic population
  ZA   - Total nuclear charge
  QA   - Mulliken gross atomic charge
  VA   - Mayer's total valence
  BVA  - Mayer's bonded valence
  FA   - Mayer's free valence

  ATOM       NA         ZA         QA         VA         BVA        FA
  0 O      8.4366     8.0000    -0.4366     2.0580     2.0580     0.0000
  1 O      8.4332     8.0000    -0.4332     2.0606     2.0606     0.0000
  2 C      5.8788     6.0000     0.1212     3.3418     3.3418     0.0000
  3 C      5.9187     6.0000     0.0813     3.6447     3.6447     0.0000
  4 C      5.9447     6.0000     0.0553     3.5352     3.5352     0.0000
  5 C      6.2971     6.0000    -0.2971     3.9353     3.9353     0.0000
  6 C      5.8641     6.0000     0.1359     3.6787     3.6787    -0.0000
  7 C      6.2913     6.0000    -0.2913     3.8816     3.8816     0.0000
  8 C      5.7858     6.0000     0.2142     3.9259     3.9259     0.0000
  9 C      6.2529     6.0000    -0.2529     3.8710     3.8710     0.0000
 10 C      5.7347     6.0000     0.2653     3.8701     3.8701     0.0000
 11 C      6.2376     6.0000    -0.2376     3.8826     3.8826     0.0000
 12 C      6.1847     6.0000    -0.1847     3.8387     3.8387     0.0000
 13 C      6.1829     6.0000    -0.1829     3.8910     3.8910    -0.0000
 14 C      6.2479     6.0000    -0.2479     3.9230     3.9230    -0.0000
 15 C      6.2630     6.0000    -0.2630     3.9313     3.9313     0.0000
 16 C      6.1797     6.0000    -0.1797     3.8078     3.8078    -0.0000
 17 C      6.1416     6.0000    -0.1416     3.8188     3.8188     0.0000
 18 C      6.3002     6.0000    -0.3002     3.8903     3.8903     0.0000
 19 C      6.3260     6.0000    -0.3260     3.9125     3.9125     0.0000
 20 H      0.8515     1.0000     0.1485     0.9766     0.9766    -0.0000
 21 H      0.8564     1.0000     0.1436     0.9773     0.9773     0.0000
 22 H      0.8376     1.0000     0.1624     0.9652     0.9652     0.0000
 23 H      0.8522     1.0000     0.1478     0.9622     0.9622     0.0000
 24 H      0.8653     1.0000     0.1347     0.9716     0.9716    -0.0000
 25 H      0.8785     1.0000     0.1215     0.9716     0.9716     0.0000
 26 H      0.8774     1.0000     0.1226     0.9644     0.9644     0.0000
 27 H      0.8676     1.0000     0.1324     0.9676     0.9676     0.0000
 28 H      0.8683     1.0000     0.1317     0.9866     0.9866    -0.0000
 29 H      0.8717     1.0000     0.1283     0.9871     0.9871     0.0000
 30 H      0.8642     1.0000     0.1358     0.9743     0.9743    -0.0000
 31 H      0.8700     1.0000     0.1300     0.9697     0.9697    -0.0000
 32 H      0.6459     1.0000     0.3541     0.8934     0.8934    -0.0000
 33 H      0.6517     1.0000     0.3483     0.9024     0.9024     0.0000
 34 H      0.8548     1.0000     0.1452     0.9697     0.9697     0.0000
 35 H      0.8534     1.0000     0.1466     0.9714     0.9714     0.0000
 36 H      0.8633     1.0000     0.1367     0.9695     0.9695    -0.0000
 37 H      0.8687     1.0000     0.1313     0.9736     0.9736    -0.0000

  Mayer bond orders larger than 0.100000
B(  0-O ,  8-C ) :   1.1420 B(  0-O , 32-H ) :   0.8475 B(  1-O , 10-C ) :   1.1330 
B(  1-O , 33-H ) :   0.8469 B(  2-C ,  3-C ) :   0.8837 B(  2-C ,  7-C ) :   1.3082 
B(  2-C ,  8-C ) :   1.2386 B(  3-C ,  5-C ) :   1.3846 B(  3-C ,  9-C ) :   1.3202 
B(  4-C ,  5-C ) :   1.3607 B(  4-C , 10-C ) :   1.2443 B(  4-C , 11-C ) :   0.9226 
B(  5-C , 20-H ) :   0.9571 B(  6-C ,  7-C ) :   1.3839 B(  6-C , 12-C ) :   0.9026 
B(  6-C , 13-C ) :   1.3475 B(  7-C , 21-H ) :   0.9696 B(  8-C , 15-C ) :   1.3910 
B(  9-C , 14-C ) :   1.4230 B(  9-C , 22-H ) :   0.9847 B( 10-C , 14-C ) :   1.3818 
B( 11-C , 16-C ) :   0.9482 B( 11-C , 23-H ) :   0.9728 B( 11-C , 24-H ) :   0.9576 
B( 12-C , 17-C ) :   0.9589 B( 12-C , 25-H ) :   0.9684 B( 12-C , 26-H ) :   0.9625 
B( 13-C , 15-C ) :   1.4157 B( 13-C , 27-H ) :   0.9859 B( 14-C , 28-H ) :   0.9918 
B( 15-C , 29-H ) :   0.9931 B( 16-C , 18-C ) :   1.8940 B( 16-C , 30-H ) :   0.9558 
B( 17-C , 19-C ) :   1.9138 B( 17-C , 31-H ) :   0.9557 B( 18-C , 34-H ) :   0.9659 
B( 18-C , 35-H ) :   0.9582 B( 19-C , 36-H ) :   0.9661 B( 19-C , 37-H ) :   0.9615 


-------
TIMINGS
-------

Total SCF time: 0 days 0 hours 0 min 19 sec 

Total time                  ....      19.541 sec
Sum of individual times     ....      19.451 sec  ( 99.5%)

SCF preparation             ....       0.983 sec  (  5.0%)
Fock matrix formation       ....      17.370 sec  ( 88.9%)
  Startup                   ....       0.031 sec  (  0.2% of F)
  Split-RI-J                ....       1.006 sec  (  5.8% of F)
  Chain of spheres X        ....      13.682 sec  ( 78.8% of F)
  XC integration            ....       1.121 sec  (  6.5% of F)
    XC Preparation          ....       0.000 sec  (  0.0% of XC)
    Basis function eval.    ....       0.247 sec  ( 22.0% of XC)
    Density eval.           ....       0.312 sec  ( 27.8% of XC)
    XC-Functional eval.     ....       0.021 sec  (  1.9% of XC)
    XC-Potential eval.      ....       0.403 sec  ( 35.9% of XC)
  CPCM terms                ....       1.448 sec  (  8.3% of F)
Diagonalization             ....       0.000 sec  (  0.0%)
Density matrix formation    ....       0.083 sec  (  0.4%)
Total Energy calculation    ....       0.060 sec  (  0.3%)
Population analysis         ....       0.155 sec  (  0.8%)
Orbital Transformation      ....       0.149 sec  (  0.8%)
Orbital Orthonormalization  ....       0.000 sec  (  0.0%)
DIIS solution               ....       0.177 sec  (  0.9%)
SOSCF solution              ....       0.474 sec  (  2.4%)
Finished LeanSCF after  19.8 sec

Maximum memory used throughout the entire LEANSCF-calculation: 108.2 MB

-------------------------   --------------------
FINAL SINGLE POINT ENERGY      -846.983600234178
-------------------------   --------------------

                                *** OPTIMIZATION RUN DONE ***



           ************************************************************
           *        Program running with 20 parallel MPI-processes    *
           *              working on a common directory               *
           ************************************************************

------------------------------------------------------------------------------
                              ORCA PROPERTY CALCULATIONS
------------------------------------------------------------------------------

GBWName                                 ... honokiol2.gbw
Number of atoms                         ...     38
Number of basis functions               ...    728
Max core memory                         ...   5000 MB

Electric properties:
Dipole moment                           ... YES
Quadrupole moment                       ...  NO
Static polarizability (Dipole/Dipole)   ...  NO
Static polarizability (Dipole/Quad.)    ...  NO
Static polarizability (Quad./Quad.)     ...  NO
Static polarizability (Velocity)        ...  NO

Atomic electric properties:
Dipole moment                           ...  NO
Quadrupole moment                       ...  NO
Static polarizability                   ...  NO

Choice of electric origin               ... Center of mass
Position of electric origin             ...    -0.108242    -1.179133     0.030611

General magnetic properties:
Magnetizability                         ...  NO

EPR properties:
g-Tensor (aka g-matrix)                 ...  NO
Zero-Field splitting spin-orbit         ...  NO
Zero-field splitting spin-spin          ...  NO
Hyperfine couplings                     ...  NO (   0 nuclei)
Quadrupole couplings                    ...  NO (   0 nuclei)
Contact density                         ...  NO (   0 nuclei)

NMR properties:
Chemical shifts                         ...  NO (   0 nuclei)
Spin-rotation constants                 ...  NO (   0 nuclei)
Spin-spin couplings                     ...  NO (   0 nuclei,    0 pairs)

Choice of magnetic origin               ... GIAO
Position of magnetic origin             ...     0.000000     0.000000     0.000000

Properties with geometric perturbations:
SCF Hessian                             ...  NO
IR spectrum                             ...  NO
VCD spectrum                            ...  NO
X-ray spectroscopy properties:
SCF XES/XAS/RIXS spectra                ...  NO


-------------
DIPOLE MOMENT
-------------

Method             : SCF
Type of density    : Electron Density
Multiplicity       :   1
Irrep              :   0
Energy             :  -846.9836002341775156 Eh
Relativity type    : 
Basis              : AO
                                X                 Y                 Z
Electronic contribution:      2.330982031       2.775140209      12.455835589
Nuclear contribution   :     -3.328311604      -3.242422527     -13.378465705
                        -----------------------------------------
Total Dipole Moment    :     -0.997329573      -0.467282317      -0.922630116
                        -----------------------------------------
Magnitude (a.u.)       :      1.436755154
Magnitude (Debye)      :      3.651941376



--------------------
Rotational spectrum 
--------------------
 
Rotational constants in cm-1:             0.016558             0.006115             0.004696 
Rotational constants in MHz :           496.392643           183.321639           140.768763 

Dipole components along the rotational axes: 
x,y,z [a.u.] :    -0.757564    -1.216634     0.100819 
x,y,z [Debye]:    -1.925573    -3.092438     0.256261 

 

Dipole moment calculation done in   0.0 sec 

Maximum memory used throughout the entire PROP-calculation: 57.2 MB

--------------------------------
SUGGESTED CITATIONS FOR THIS RUN
--------------------------------

Below you find a list of papers that are relevant to this ORCA run
We neither can nor want to force you to cite these papers, but we appreciate if you do
You receive ORCA, which is the product of decades of hard work by many enthusiastic individuals, for free
The only thing we kindly ask in return is that you cite our papers,
We deeply appreciate it, if you show your appreciation for ORCA by not just citing the generic ORCA reference.

Please note that relegating all ORCA citations to the supporting information does *not* help us.
SI sections are not indexed - citations you put there will not count into any citation statistics
But we need these citations in order to attract the funding resources that allow us to do what we are doing

Therefore, if you are a happy ORCA user, please consider citing a few of the papers listed below in the main body of your paper

In addition to the list printed below, the program has created the file honokiol2.bibtex that contains the list in bibtex format
You can import this file easily into all common literature databanks and citation aid programs


List of essential papers. We consider these as the minimum necessary citations

  1. Neese,F.
     Software update: the ORCA program system, version 5.0
     WIRES Comput. Molec. Sci., 2022 12(1)e1606
     doi.org/10.1002/wcms.1606

List of papers to cite with high priority. The work reported in these papers was absolutely
necessary for this run to complete.
Our perspective: the developers of density functionals and basis sets usually get cited in chemistry papers
Good! But without the algorithms to do something with them, the functionals or basis sets would not do anything.
Hence, in our opinion, the algorithm design and method developments papers are equally worthy of getting cited

  1. Neese,F.
     An improvement of the resolution of the identity approximation for the formation of the Coulomb matrix
     J. Comp. Chem., 2003 24(14)1740-1747
     doi.org/10.1002/jcc.10318
  2. Neese,F.; Wennmohs,F.; Hansen,A.; Becker,U.
     Efficient, approximate and parallel Hartree-Fock and hybrid DFT calculations. A 'chain-of-spheres' algorithm for the Hartree-Fock exchange
     Chem. Phys., 2009 356(1-3)98-109
     doi.org/10.1016/j.chemphys.2008.10.036
  3. Garcia-Rates,M.; Neese,F.
     Effect of the Solute Cavity on the Solvation Energy and its Derivatives within the Framework of the Gaussian Charge Scheme
     J. Comput. Chem., 2020 41 922-939
     doi.org/10.1002/jcc.26139
  4. Helmich-Paris,B.; de Souza,B.; Neese,F.; Izsák,R.
     An improved chain of spheres for exchange algorithm
     J. Chem. Phys., 2021 155 104109
     doi.org/doi: 10.1063/5.0058766.
  5. Neese,F.
     The SHARK Integral Generation and Digestion System
     J. Comp. Chem., 2022  1-16
     doi.org/10.1002/jcc.26942

List of suggested additional citations. These are papers that are important in the 'surrounding' of 
of this run, or papers that preceded the highly important papers. If you like your results we are grateful for a citation.

  1. Izsak,R.; Neese,F.
     An overlap fitted chain of spheres exchange method
     J. Chem. Phys., 2011 135 144105
     doi.org/10.1063/1.3646921
  2. Izsak,R.; Hansen,A.; Neese,F.
     The resolution of identity and chain of spheres approximations for the LPNO-CCSD singles Fock term
     Molec. Phys., 2012 110 2413-2417
     doi.org/10.1080/00268976.2012.687466
  3. Neese,F.
     The ORCA program system
     WIRES Comput. Molec. Sci., 2012 2(1)73-78
     doi.org/10.1002/wcms.81
  4. Izsak,R.; Neese,F.; Klopper,W.
     Robust fitting techniques in the chain of spheres approximation to the Fock exchange: The role of the complementary space
     J. Chem. Phys., 2013 139 
     doi.org/10.1063/1.4819264
  5. Neese,F.
     Software update: the ORCA program system, version 4.0
     WIRES Comput. Molec. Sci., 2018 8(1)1-6
     doi.org/10.1002/wcms.1327
  6. Neese,F.; Wennmohs,F.; Becker,U.; Riplinger,C.
     The ORCA quantum chemistry program package
     J. Chem. Phys., 2020 152 Art. No. L224108
     doi.org/10.1063/5.0004608

List of optional additional citations

  1. Neese,F.
     Approximate second-order SCF convergence for spin unrestricted wavefunctions
     Chem. Phys. Lett., 2000 325(1-3)93-98
     doi.org/10.1016/s0009-2614(00)00662-x

Timings for individual modules:

Sum of individual times          ...      847.715 sec (=  14.129 min)
Startup calculation              ...       50.517 sec (=   0.842 min)   6.0 %
SCF iterations                   ...      535.322 sec (=   8.922 min)  63.1 %
Property calculations            ...        0.886 sec (=   0.015 min)   0.1 %
SCF Gradient evaluation          ...      260.821 sec (=   4.347 min)  30.8 %
Geometry relaxation              ...        0.168 sec (=   0.003 min)   0.0 %
                             ****ORCA TERMINATED NORMALLY****
TOTAL RUN TIME: 0 days 0 hours 14 minutes 20 seconds 514 msec
