
                                 *****************
                                 * O   R   C   A *
                                 *****************

                                            #,                                       
                                            ###                                      
                                            ####                                     
                                            #####                                    
                                            ######                                   
                                           ########,                                 
                                     ,,################,,,,,                         
                               ,,#################################,,                 
                          ,,##########################################,,             
                       ,#########################################, ''#####,          
                    ,#############################################,,   '####,        
                  ,##################################################,,,,####,       
                ,###########''''           ''''###############################       
              ,#####''   ,,,,##########,,,,          '''####'''          '####       
            ,##' ,,,,###########################,,,                        '##       
           ' ,,###''''                  '''############,,,                           
         ,,##''                                '''############,,,,        ,,,,,,###''
      ,#''                                            '''#######################'''  
     '                                                          ''''####''''         
             ,#######,   #######,   ,#######,      ##                                
            ,#'     '#,  ##    ##  ,#'     '#,    #''#        ,####,   ,####,        
            ##       ##  ##   ,#'  ##            #'  '#       #'       #'  '#        
            ##       ##  #######   ##           ,######,      #####,   #    #        
            '#,     ,#'  ##    ##  '#,     ,#' ,#      #,     #,   #   #,  ,#        
             '#######'   ##     ##  '#######'  #'      '#     '####' # '####'        



                #########################################################
                #                        -***-                          #
                #          Department of theory and spectroscopy        #
                #                                                       #
                #                      Frank Neese                      #
                #                                                       #
                #     Directorship, Architecture, Infrastructure        #
                #                    SHARK, DRIVERS                     #
                #        Core code/Algorithms in most modules           #
                #                                                       #
                #        Max Planck Institute fuer Kohlenforschung      #
                #                Kaiser Wilhelm Platz 1                 #
                #                 D-45470 Muelheim/Ruhr                 #
                #                      Germany                          #
                #                                                       #
                #                  All rights reserved                  #
                #                        -***-                          #
                #########################################################


                         Program Version 6.0.1  -  RELEASE   -


 With contributions from (in alphabetic order):
[Max-Planck-Institut fuer Kohlenforschung]                               
  Daniel Aravena         : Magnetic Suceptibility                        
  Michael Atanasov       : Ab Initio Ligand Field Theory (pilot matlab implementation)
  Alexander A. Auer      : GIAO ZORA, VPT2 properties, NMR spectrum      
  Ute Becker             : All parallelization in ORCA, NUMFREQ, NUMCALC 
  Giovanni Bistoni       : ED, misc. LED, open-shell LED, HFLD           
  Martin Brehm           : Molecular dynamics                            
  Dmytro Bykov           : pre 5.0 version of the SCF Hessian            
  Marcos Casanova-Páez   : Triplet and SCS-CIS(D). UHF-(DLPNO)-IP/EA/STEOM-CCSD. UHF-CVS-IP/STEOM-CCSD   
  Vijay G. Chilkuri      : MRCI spin determinant printing, contributions to CSF-ICE 
  Pauline Colinet        : FMM embedding                                 
  Dipayan Datta          : RHF DLPNO-CCSD density                        
  Achintya Kumar Dutta   : EOM-CC, STEOM-CC                              
  Nicolas Foglia         : Exact transition moments, OPA infrastructure, MCD improvements    
  Dmitry Ganyushin       : Spin-Orbit,Spin-Spin,Magnetic field MRCI      
  Miquel Garcia-Rates    : C-PCM and meta-GGA Hessian, CCSD/C-PCM, Gaussian charge scheme 
  Tiago L. C. Gouveia    : GS-ROHF, GS-ROCIS                             
  Yang Guo               : DLPNO-NEVPT2, F12-NEVPT2, CIM, IAO-localization        
  Andreas Hansen         : Spin unrestricted coupled pair/coupled cluster methods 
  Ingolf Harden          : AUTO-CI MPn and infrastructure                
  Benjamin Helmich-Paris : MC-RPA, TRAH-(SCF,CASSCF), AVAS, COSX integrals, SCF dyn. polar. 
  Lee Huntington         : MR-EOM, pCC                                   
  Robert Izsak           : Overlap fitted RIJCOSX, COSX-SCS-MP3, EOM     
  Riya Kayal             : Wick's Theorem for AUTO-CI, AUTO-CI UHF-CCSDT 
  Emily Kempfer          : AUTO-CI, RHF CISDT and CCSDT                  
  Christian Kollmar      : KDIIS, OOCD, Brueckner-CCSD(T), CCSD density, CASPT2, CASPT2-K, improved NEVPT2 
  Axel Koslowski         : Symmetry handling                             
  Simone Kossmann        : meta-GGA functionals, TD-DFT gradient, OOMP2, (MP2 Hessian; deprecated post 5.0) 
  Lucas Lang             : DCDCAS                                        
  Marvin Lechner         : AUTO-CI (C++ implementation), FIC-MRCC        
  Spencer Leger          : CASSCF response                               
  Dagmar Lenk            : GEPOL surface, SMD, ORCA-2-JSON               
  Dimitrios Liakos       : Extrapolation schemes; Compound Job, initial MDCI parallelization 
  Dimitrios Manganas     : Further ROCIS development; embedding schemes. LFT, Crystal Embedding 
  Dimitrios Pantazis     : SARC Basis sets                               
  Anastasios Papadopoulos: AUTO-CI, single reference methods and gradients 
  Taras Petrenko         : pre 6.0 DFT Hessian and TD-DFT gradient, (ASA, deprecated), ECA, 1-Electron XAS/XES, NRVS 
  Peter Pinski           : DLPNO-MP2, DLPNO-MP2 Gradient                 
  Christoph Reimann      : Effective Core Potentials                     
  Marius Retegan         : Local ZFS, SOC                                
  Christoph Riplinger    : Optimizer, TS searches, QM/MM, DLPNO-CCSD(T), (RO)-DLPNO pert. Triples 
  Michael Roemelt        : Original ROCIS implementation                 
  Masaaki Saitow         : Open-shell DLPNO-CCSD energy and density      
  Barbara Sandhoefer     : DKH picture change effects                    
  Kantharuban Sivalingam : CASSCF convergence/infrastructure, NEVPT2 and variants, FIC-MRCI 
  Bernardo de Souza      : ESD, SOC TD-DFT                               
  Georgi L. Stoychev     : AutoAux, RI-MP2 NMR, DLPNO-MP2 response, X2C  
  Van Anh Tran           : RI-MP2 g-tensors                              
  Willem Van den Heuvel  : Paramagnetic NMR                              
  Zikuan Wang            : NOTCH, Electric field optimization            
  Frank Wennmohs         : Technical directorship and infrastructure     
  Hang Xu                : AUTO-CI-Response properties                   
                                                                         
[FACCTs GmbH]                                                            
  Markus Bursch, Miquel Garcia-Rates, Christoph Riplinger, Bernardo de Souza, Georgi L. Stoychev 
                                                                 
  APM, Basis sets (HGBS, AHGBS, def-TZVP (Ac-Lr), def2-XVPD (La-Lu)), CI-OPT, improved COSX, DLPNO-Multilevel,           
  DOCKER, DRACO, updates on ESD, GOAT, IRC, LR-CPCM, MBIS, meta-GGA TD-DFT gradient, ML-optimized integration grids, 
  MM, NACMEs, nearIR, NEB, NEB-TS, NL-DFT gradient (VV10), 2- and 3-layer-ONIOM, interface openCOSMO-RS, QMMM,   
  Crystal-QMMM, SF, symmetry and pop. for TD-DFT, r2SCAN hybrids, SOLVATOR                                   
                                                                         
[Other institutions]                                                     
  V. Asgeirsson          : NEB                                           
  Christoph Bannwarth    : sTDA-DFT, sTD-DFT, PBEh-3c, B97-3c, D3        
  Sebastian Ehlert       : rSCAN, r2SCAN, r2SCAN-3c, D4, dhf basis sets  
  Marvin Friede          : D4 for Fr, Ra, Ac-Lr                          
  Lars Goerigk           : TD-DFT with DH, B97 family of functionals     
  Stefan Grimme          : VdW corrections, initial TS optimization, DFT functionals, gCP, sTDA/sTD-DF 
  Waldemar Hujo          : DFT-NL                                        
  H. Jonsson             : NEB                                           
  Holger Kruse           : gCP                                           
  Marcel Mueller         : wB97X-3c, vDZP basis set                      
  Hagen Neugebauer       : wr2SCAN                                       
  Tobias Risthaus        : range-separated hybrid DFT                    
  Lukas Wittmann         : regularized MP2, r2SCAN double-hybrids, wr2SCAN        
                                                                         
We gratefully acknowledge several colleagues who have allowed us to      
interface, adapt or use parts of their codes:                            
  Ed Valeev, F. Pavosevic, A. Kumar             : LibInt (2-el integral package), F12 methods 
  Garnet Chan, S. Sharma, J. Yang, R. Olivares  : DMRG                   
  Ulf Ekstrom                                   : XCFun DFT Library      
  Mihaly Kallay                                 : mrcc  (arbitrary order and MRCC methods)
  Frank Weinhold                                : gennbo (NPA and NBO analysis)           
  Simon Mueller                                 : openCOSMO-RS                            
  Christopher J. Cramer and Donald G. Truhlar   : smd solvation model                     
  S Lehtola, MJT Oliveira, MAL Marques          : LibXC Library                           
  Liviu Ungur et al                             : ANISO software                          


 Your calculation uses the libint2 library for the computation of 2-el integrals
 For citations please refer to: http://libint.valeyev.net

 Your ORCA version has been built with support for libXC version: 6.2.2
 For citations please refer to: https://libxc.gitlab.io

 This ORCA versions uses:
   CBLAS   interface :  Fast vector & matrix operations
   LAPACKE interface :  Fast linear algebra routines
   SCALAPACK package :  Parallel linear algebra routines
   Shared memory     :  Shared parallel matrices
   BLAS/LAPACK       :  OpenBLAS 0.3.27  USE64BITINT DYNAMIC_ARCH NO_AFFINITY SkylakeX SINGLE_THREADED
        Core in use  :  SkylakeX
   Copyright (c) 2011-2014, The OpenBLAS Project


NOTE: MaxCore=5000 MB was set to SCF,MP2,MDCI,CIPSI,MRCI and CIS
      => If you want to overwrite this, your respective input block should be placed after the MaxCore statement
Warning: RI is on but no J-basis has been assigned. Assigning Def2/J (nothing to worry about!)
================================================================================

----- Orbital basis set information -----
Your calculation utilizes the basis: def2-TZVP
   F. Weigend and R. Ahlrichs, Phys. Chem. Chem. Phys. 7, 3297 (2005).

----- AuxJ basis set information -----
Your calculation utilizes the auxiliary basis: def2/J
   F. Weigend, Phys. Chem. Chem. Phys. 8, 1057 (2006).

================================================================================
                                        WARNINGS
                       Please study these warnings very carefully!
================================================================================


================================================================================
                                       INPUT FILE
================================================================================
NAME = honokiol2.inp
|  1> ! B3LYP def2-TZVP TightSCF
|  2> 
|  3> %maxcore 5000
|  4> 
|  5> %pal
|  6> nprocs 20
|  7> end
|  8> 
|  9> * xyz 0 1
| 10> O           1.43781396904993      1.31956612345791      2.48468433319581
| 11>   O          -3.62347843921718     -2.41724762608739      2.17112963576646
| 12>   C           1.23165087469998     -0.04524406273437      0.48175268561596
| 13>   C          -0.05012954589113     -0.65101744071631      0.92722451694895
| 14>   C          -2.40247599363198     -1.17018447501868      0.48054858121080
| 15>   C          -1.18619584648327     -0.59889388847865      0.11437325586950
| 16>   C           2.98671349428596      0.16172341264446     -1.21215839741290
| 17>   C           1.78640847772282     -0.37901636024270     -0.75579095655152
| 18>   C           1.91364468124659      0.89170120951340      1.27839826479913
| 19>   C          -0.16528004599369     -1.31154866721798      2.15724603164201
| 20>   C          -2.47719084918800     -1.83509953484444      1.71527307384049
| 21>   C          -3.61882313162164     -1.03763140152487     -0.41452229491397
| 22>   C           3.55763066373366     -0.24510356891412     -2.55778596311962
| 23>   C           3.64211878060039      1.07664773964895     -0.38967756999719
| 24>   C          -1.36131883286036     -1.89633601264824      2.54500150927538
| 25>   C           3.11264860069266      1.44271939201016      0.83960929677719
| 26>   C          -4.20446513091141     -2.35282843998708     -0.86066146783848
| 27>   C           2.68255033666981      0.13917581891887     -3.71901332384119
| 28>   C          -5.47582989442325     -2.71293389458071     -0.70951440370433
| 29>   C           2.19414321790238     -0.70348418126244     -4.62143192850212
| 30>   H          -1.12460822711274     -0.07615306412587     -0.83348737784514
| 31>   H           1.26403225671752     -1.10060012982200     -1.37392145731422
| 32>   H           0.70081798328530     -1.40372573930811      2.80194484009726
| 33>   H          -4.39612253758763     -0.45202524555229      0.08900696020899
| 34>   H          -3.32510329965460     -0.46649040195218     -1.30004366119698
| 35>   H           3.73330844460754     -1.32510454919781     -2.58297114513916
| 36>   H           4.53597071845039      0.23246026544822     -2.67605930204806
| 37>   H           4.58076893342698      1.51307857937819     -0.71196482832420
| 38>   H          -1.44513104884310     -2.42398580467270      3.48636157770594
| 39>   H           3.61250715706545      2.16559210094313      1.47150912258637
| 40>   H          -3.51037409872096     -3.04098535599171     -1.33664325474117
| 41>   H           2.44395701096569      1.19733239237477     -3.79630315117068
| 42>   H           0.56607731197043      0.93171817042748      2.64077888837304
| 43>   H          -4.23488212903567     -2.57265466930178      1.43672265040035
| 44>   H          -5.83907487278300     -3.67107868737665     -1.05895616458907
| 45>   H          -6.20283074610648     -2.05403842652119     -0.24523589971118
| 46>   H           1.57171583625792     -0.36205147411773     -5.43930106676794
| 47>   H           2.40419585081472     -1.76704531166749     -4.57823511468454
| 48> *
| 49> 
| 50>                          ****END OF INPUT****
================================================================================

                       ****************************
                       * Single Point Calculation *
                       ****************************

---------------------------------
CARTESIAN COORDINATES (ANGSTROEM)
---------------------------------
  O      1.437814    1.319566    2.484684
  O     -3.623478   -2.417248    2.171130
  C      1.231651   -0.045244    0.481753
  C     -0.050130   -0.651017    0.927225
  C     -2.402476   -1.170184    0.480549
  C     -1.186196   -0.598894    0.114373
  C      2.986713    0.161723   -1.212158
  C      1.786408   -0.379016   -0.755791
  C      1.913645    0.891701    1.278398
  C     -0.165280   -1.311549    2.157246
  C     -2.477191   -1.835100    1.715273
  C     -3.618823   -1.037631   -0.414522
  C      3.557631   -0.245104   -2.557786
  C      3.642119    1.076648   -0.389678
  C     -1.361319   -1.896336    2.545002
  C      3.112649    1.442719    0.839609
  C     -4.204465   -2.352828   -0.860661
  C      2.682550    0.139176   -3.719013
  C     -5.475830   -2.712934   -0.709514
  C      2.194143   -0.703484   -4.621432
  H     -1.124608   -0.076153   -0.833487
  H      1.264032   -1.100600   -1.373921
  H      0.700818   -1.403726    2.801945
  H     -4.396123   -0.452025    0.089007
  H     -3.325103   -0.466490   -1.300044
  H      3.733308   -1.325105   -2.582971
  H      4.535971    0.232460   -2.676059
  H      4.580769    1.513079   -0.711965
  H     -1.445131   -2.423986    3.486362
  H      3.612507    2.165592    1.471509
  H     -3.510374   -3.040985   -1.336643
  H      2.443957    1.197332   -3.796303
  H      0.566077    0.931718    2.640779
  H     -4.234882   -2.572655    1.436723
  H     -5.839075   -3.671079   -1.058956
  H     -6.202831   -2.054038   -0.245236
  H      1.571716   -0.362051   -5.439301
  H      2.404196   -1.767045   -4.578235

----------------------------
CARTESIAN COORDINATES (A.U.)
----------------------------
  NO LB      ZA    FRAG     MASS         X           Y           Z
   0 O     8.0000    0    15.999    2.717075    2.493619    4.695373
   1 O     8.0000    0    15.999   -6.847382   -4.567936    4.102840
   2 C     6.0000    0    12.011    2.327483   -0.085499    0.910381
   3 C     6.0000    0    12.011   -0.094731   -1.230245    1.752200
   4 C     6.0000    0    12.011   -4.540022   -2.211328    0.908105
   5 C     6.0000    0    12.011   -2.241585   -1.131745    0.216134
   6 C     6.0000    0    12.011    5.644071    0.305613   -2.290647
   7 C     6.0000    0    12.011    3.375823   -0.716237   -1.428238
   8 C     6.0000    0    12.011    3.616264    1.685071    2.415823
   9 C     6.0000    0    12.011   -0.312334   -2.478468    4.076604
  10 C     6.0000    0    12.011   -4.681212   -3.467836    3.241396
  11 C     6.0000    0    12.011   -6.838585   -1.960839   -0.783334
  12 C     6.0000    0    12.011    6.722948   -0.463179   -4.833515
  13 C     6.0000    0    12.011    6.882607    2.034569   -0.736384
  14 C     6.0000    0    12.011   -2.572520   -3.583556    4.809356
  15 C     6.0000    0    12.011    5.882053    2.726345    1.586632
  16 C     6.0000    0    12.011   -7.945288   -4.446201   -1.626414
  17 C     6.0000    0    12.011    5.069285    0.263004   -7.027917
  18 C     6.0000    0    12.011  -10.347819   -5.126702   -1.340788
  19 C     6.0000    0    12.011    4.146330   -1.329392   -8.733241
  20 H     1.0000    0     1.008   -2.125202   -0.143908   -1.575063
  21 H     1.0000    0     1.008    2.388675   -2.079833   -2.596335
  22 H     1.0000    0     1.008    1.324354   -2.652657    5.294908
  23 H     1.0000    0     1.008   -8.307468   -0.854204    0.168199
  24 H     1.0000    0     1.008   -6.283535   -0.881539   -2.456726
  25 H     1.0000    0     1.008    7.054931   -2.504085   -4.881108
  26 H     1.0000    0     1.008    8.571742    0.439286   -5.057019
  27 H     1.0000    0     1.008    8.656399    2.859304   -1.345419
  28 H     1.0000    0     1.008   -2.730902   -4.580669    6.588269
  29 H     1.0000    0     1.008    6.826649    4.092376    2.780749
  30 H     1.0000    0     1.008   -6.633646   -5.746630   -2.525890
  31 H     1.0000    0     1.008    4.618409    2.262630   -7.173973
  32 H     1.0000    0     1.008    1.069731    1.760692    4.990349
  33 H     1.0000    0     1.008   -8.002767   -4.861613    2.715012
  34 H     1.0000    0     1.008  -11.034252   -6.937333   -2.001137
  35 H     1.0000    0     1.008  -11.721651   -3.881570   -0.463429
  36 H     1.0000    0     1.008    2.970112   -0.684178  -10.278789
  37 H     1.0000    0     1.008    4.543272   -3.339232   -8.651611

--------------------------------
INTERNAL COORDINATES (ANGSTROEM)
--------------------------------
 O      0   0   0     0.000000000000     0.00000000     0.00000000
 O      1   0   0     6.299109015492     0.00000000     0.00000000
 C      1   2   0     2.432477184001    63.77259402     0.00000000
 C      3   1   2     1.486057732591    93.15218861     0.58783938
 C      2   1   3     2.429830812403    47.65529728   324.53868438
 C      5   2   1     1.392765127186   146.33297007    25.01054443
 C      3   1   2     2.447940990249   117.48890922   179.81581447
 C      7   3   1     1.393342339788    28.70754247   181.76941717
 C      1   2   3     1.365506986457    92.87369626   359.19242297
 C      4   3   1     1.400897592783   121.75614782   304.46020474
 C      2   1   3     1.364066290267    24.25140510   355.73556697
 C      5   2   1     1.515988967861    93.00848149   207.01517430
 C      7   3   1     1.517289739267   149.40515424   180.52066114
 C      7   3   1     1.393957432973    89.10043641     1.44921383
 C     10   4   3     1.386664822334   121.01521184   181.40245049
 C     14   7   3     1.387621463836   121.09489359   359.45779932
 C     12   5   2     1.507235868379   114.21874749   300.24080384
 C     13   7   3     1.503956518659   113.41037361    64.20053131
 C     17  12   5     1.329996141094   125.03280575   126.16949594
 C     18  13   7     1.327771338600   125.21433088   237.26710827
 H      6   5   2     1.084200528155   118.50434585   181.06672281
 H      8   7   3     1.084271814982   119.11598599   180.99577980
 H     10   4   3     1.083632300443   119.78749096   358.95962538
 H     12   5   2     1.095751179417   110.15606775    63.38451788
 H     12   5   2     1.093901947721   107.94876114   179.25040547
 H     13   7   3     1.094485766696   110.20517349   301.52244797
 H     13   7   3     1.095082216665   108.36178346   185.32231912
 H     14   7   3     1.084160995493   119.72830541   179.53278113
 H     15  10   4     1.082403607259   121.03503233   178.75423044
 H     16  14   7     1.082451347432   121.14006662   181.03770271
 H     17  12   5     1.087143487988   115.71324800   306.35562402
 H     18  13   7     1.087472218692   115.54120908    56.93676244
 H      1   2   3     0.966807294202    17.36414623   161.06656349
 H      2   1   3     0.968152591877   129.82187571   314.76640006
 H     19  17  12     1.082634704097   121.57877540   179.51202469
 H     19  17  12     1.085462116081   121.63393016     0.56525635
 H     20  18  13     1.083006032419   121.64038358   180.29223249
 H     20  18  13     1.084965599190   121.59069546   359.93385622

---------------------------
INTERNAL COORDINATES (A.U.)
---------------------------
 O      0   0   0     0.000000000000     0.00000000     0.00000000
 O      1   0   0    11.903590926994     0.00000000     0.00000000
 C      1   2   0     4.596715704773    63.77259402     0.00000000
 C      3   1   2     2.808242133793    93.15218861     0.58783938
 C      2   1   3     4.591714787204    47.65529728   324.53868438
 C      5   2   1     2.631944659258   146.33297007    25.01054443
 C      3   1   2     4.625938063570   117.48890922   179.81581447
 C      7   3   1     2.633035432997    28.70754247   181.76941717
 C      1   2   3     2.580434238359    92.87369626   359.19242297
 C      4   3   1     2.647312792030   121.75614782   304.46020474
 C      2   1   3     2.577711717119    24.25140510   355.73556697
 C      5   2   1     2.864803971302    93.00848149   207.01517430
 C      7   3   1     2.867262073023   149.40515424   180.52066114
 C      7   3   1     2.634197790662    89.10043641     1.44921383
 C     10   4   3     2.620416753754   121.01521184   181.40245049
 C     14   7   3     2.622224544201   121.09489359   359.45779932
 C     12   5   2     2.848263010460   114.21874749   300.24080384
 C     13   7   3     2.842065937590   113.41037361    64.20053131
 C     17  12   5     2.513328465839   125.03280575   126.16949594
 C     18  13   7     2.509124198423   125.21433088   237.26710827
 H      6   5   2     2.048842072465   118.50434585   181.06672281
 H      8   7   3     2.048976785046   119.11598599   180.99577980
 H     10   4   3     2.047768277709   119.78749096   358.95962538
 H     12   5   2     2.070669640018   110.15606775    63.38451788
 H     12   5   2     2.067175098555   107.94876114   179.25040547
 H     13   7   3     2.068278356530   110.20517349   301.52244797
 H     13   7   3     2.069405483624   108.36178346   185.32231912
 H     14   7   3     2.048767366561   119.72830541   179.53278113
 H     15  10   4     2.045446384088   121.03503233   178.75423044
 H     16  14   7     2.045536599940   121.14006662   181.03770271
 H     17  12   5     2.054403460574   115.71324800   306.35562402
 H     18  13   7     2.055024671576   115.54120908    56.93676244
 H      1   2   3     1.827001010319    17.36414623   161.06656349
 H      2   1   3     1.829543254494   129.82187571   314.76640006
 H     19  17  12     2.045883093823   121.57877540   179.51202469
 H     19  17  12     2.051226128140   121.63393016     0.56525635
 H     20  18  13     2.046584802657   121.64038358   180.29223249
 H     20  18  13     2.050287847195   121.59069546   359.93385622

---------------------
BASIS SET INFORMATION
---------------------
There are 3 groups of distinct atoms

 Group   1 Type O   : 11s6p2d1f contracted to 5s3p2d1f pattern {62111/411/11/1}
 Group   2 Type C   : 11s6p2d1f contracted to 5s3p2d1f pattern {62111/411/11/1}
 Group   3 Type H   : 5s1p contracted to 3s1p pattern {311/1}

Atom   0O    basis set group =>   1
Atom   1O    basis set group =>   1
Atom   2C    basis set group =>   2
Atom   3C    basis set group =>   2
Atom   4C    basis set group =>   2
Atom   5C    basis set group =>   2
Atom   6C    basis set group =>   2
Atom   7C    basis set group =>   2
Atom   8C    basis set group =>   2
Atom   9C    basis set group =>   2
Atom  10C    basis set group =>   2
Atom  11C    basis set group =>   2
Atom  12C    basis set group =>   2
Atom  13C    basis set group =>   2
Atom  14C    basis set group =>   2
Atom  15C    basis set group =>   2
Atom  16C    basis set group =>   2
Atom  17C    basis set group =>   2
Atom  18C    basis set group =>   2
Atom  19C    basis set group =>   2
Atom  20H    basis set group =>   3
Atom  21H    basis set group =>   3
Atom  22H    basis set group =>   3
Atom  23H    basis set group =>   3
Atom  24H    basis set group =>   3
Atom  25H    basis set group =>   3
Atom  26H    basis set group =>   3
Atom  27H    basis set group =>   3
Atom  28H    basis set group =>   3
Atom  29H    basis set group =>   3
Atom  30H    basis set group =>   3
Atom  31H    basis set group =>   3
Atom  32H    basis set group =>   3
Atom  33H    basis set group =>   3
Atom  34H    basis set group =>   3
Atom  35H    basis set group =>   3
Atom  36H    basis set group =>   3
Atom  37H    basis set group =>   3
---------------------------------
AUXILIARY/J BASIS SET INFORMATION
---------------------------------
There are 3 groups of distinct atoms

 Group   1 Type O   : 12s5p4d2f1g contracted to 6s4p3d1f1g pattern {711111/2111/211/2/1}
 Group   2 Type C   : 12s5p4d2f1g contracted to 6s4p3d1f1g pattern {711111/2111/211/2/1}
 Group   3 Type H   : 5s2p1d contracted to 3s1p1d pattern {311/2/1}

Atom   0O    basis set group =>   1
Atom   1O    basis set group =>   1
Atom   2C    basis set group =>   2
Atom   3C    basis set group =>   2
Atom   4C    basis set group =>   2
Atom   5C    basis set group =>   2
Atom   6C    basis set group =>   2
Atom   7C    basis set group =>   2
Atom   8C    basis set group =>   2
Atom   9C    basis set group =>   2
Atom  10C    basis set group =>   2
Atom  11C    basis set group =>   2
Atom  12C    basis set group =>   2
Atom  13C    basis set group =>   2
Atom  14C    basis set group =>   2
Atom  15C    basis set group =>   2
Atom  16C    basis set group =>   2
Atom  17C    basis set group =>   2
Atom  18C    basis set group =>   2
Atom  19C    basis set group =>   2
Atom  20H    basis set group =>   3
Atom  21H    basis set group =>   3
Atom  22H    basis set group =>   3
Atom  23H    basis set group =>   3
Atom  24H    basis set group =>   3
Atom  25H    basis set group =>   3
Atom  26H    basis set group =>   3
Atom  27H    basis set group =>   3
Atom  28H    basis set group =>   3
Atom  29H    basis set group =>   3
Atom  30H    basis set group =>   3
Atom  31H    basis set group =>   3
Atom  32H    basis set group =>   3
Atom  33H    basis set group =>   3
Atom  34H    basis set group =>   3
Atom  35H    basis set group =>   3
Atom  36H    basis set group =>   3
Atom  37H    basis set group =>   3


           ************************************************************
           *        Program running with 20 parallel MPI-processes    *
           *              working on a common directory               *
           ************************************************************
------------------------------------------------------------------------------
                             ORCA STARTUP CALCULATIONS
                           -- RI-GTO INTEGRALS CHOSEN --
------------------------------------------------------------------------------
------------------------------------------------------------------------------
                   ___                                                        
                  /   \      - P O W E R E D   B Y -                         
                 /     \                                                     
                 |  |  |   _    _      __       _____    __    __             
                 |  |  |  | |  | |    /  \     |  _  \  |  |  /  |          
                  \  \/   | |  | |   /    \    | | | |  |  | /  /          
                 / \  \   | |__| |  /  /\  \   | |_| |  |  |/  /          
                |  |  |   |  __  | /  /__\  \  |    /   |      \           
                |  |  |   | |  | | |   __   |  |    \   |  |\   \          
                \     /   | |  | | |  |  |  |  | |\  \  |  | \   \       
                 \___/    |_|  |_| |__|  |__|  |_| \__\ |__|  \__/        
                                                                              
                      - O R C A' S   B I G   F R I E N D -                    
                                      &                                       
                       - I N T E G R A L  F E E D E R -                       
                                                                              
 v1 FN, 2020, v2 2021, v3 2022-2024                                           
------------------------------------------------------------------------------


----------------------
SHARK INTEGRAL PACKAGE
----------------------

Number of atoms                             ...     38
Number of basis functions                   ...    728
Number of shells                            ...    292
Maximum angular momentum                    ...      3
Integral batch strategy                     ... SHARK/LIBINT Hybrid
RI-J (if used) integral strategy            ... SPLIT-RIJ (Revised 2003 algorithm where possible)
Printlevel                                  ...      1
Contraction scheme used                     ... SEGMENTED contraction
Prescreening option                         ... SCHWARTZ
   Thresh                                   ... 2.500e-11
   Tcut                                     ... 2.500e-12
   Tpresel                                  ... 2.500e-12 
Coulomb Range Separation                    ... NOT USED
Exchange Range Separation                   ... NOT USED
Multipole approximations                    ... NOT USED
Finite Nucleus Model                        ... NOT USED
CABS basis                                  ... NOT available
Auxiliary Coulomb fitting basis             ... AVAILABLE
   # of basis functions in Aux-J            ...   1178
   # of shells in Aux-J                     ...    390
   Maximum angular momentum in Aux-J        ...      4
Auxiliary J/K fitting basis                 ... NOT available
Auxiliary Correlation fitting basis         ... NOT available
Auxiliary 'external' fitting basis          ... NOT available

Checking pre-screening integrals            ... done (  0.0 sec) Dimension = 292
Check shell pair data                       ... done (  0.0 sec)
Shell pair information
Shell pair cut-off parameter TPreSel        ...   2.5e-12
Total number of shell pairs                 ...     42778
Shell pairs after pre-screening             ...     29571
Total number of primitive shell pairs       ...    129780
Primitive shell pairs kept                  ...     60533
          la=0 lb=0:   7975 shell pairs
          la=1 lb=0:   8635 shell pairs
          la=1 lb=1:   2354 shell pairs
          la=2 lb=0:   4132 shell pairs
          la=2 lb=1:   2264 shell pairs
          la=2 lb=2:    561 shell pairs
          la=3 lb=0:   1939 shell pairs
          la=3 lb=1:   1079 shell pairs
          la=3 lb=2:    503 shell pairs
          la=3 lb=3:    129 shell pairs

Calculating one electron integrals          ... done (  0.0 sec)
Calculating RI/J V-Matrix + Cholesky decomp.... done (  0.1 sec)
Calculating Nuclear repulsion               ... done (  0.0 sec) ENN=   1414.262595399553 Eh

Diagonalization of the overlap matrix:
Smallest eigenvalue                        ... 6.564e-06
Time for diagonalization                   ...    0.063 sec
Threshold for overlap eigenvalues          ... 1.000e-07
Number of eigenvalues below threshold      ... 0
Time for construction of square roots      ...    0.029 sec
Total time needed                          ...    0.096 sec

-------------------
DFT GRID GENERATION
-------------------

General Integration Accuracy     IntAcc      ... 4.388
Radial Grid Type                 RadialGrid  ... OptM3 with GC (2021)
Angular Grid (max. ang.)         AngularGrid ... 4 (Lebedev-302)
Angular grid pruning method      GridPruning ... 4 (adaptive)
Weight generation scheme         WeightScheme... mBecke (2022)
Basis function cutoff            BFCut       ... 1.0000e-11
Integration weight cutoff        WCut        ... 1.0000e-14
Partially contracted basis set               ... off
Rotationally invariant grid construction     ... off
Angular grids for H and He will be reduced by one unit

Total number of grid points                  ...   177197
Total number of batches                      ...     2788
Average number of points per batch           ...       63
Average number of grid points per atom       ...     4663

--------------------
COSX GRID GENERATION
--------------------

GRIDX 1
-------
General Integration Accuracy     IntAcc      ... 3.816
Radial Grid Type                 RadialGrid  ... OptM3 with GC (2021)
Angular Grid (max. ang.)         AngularGrid ... 1 (Lebedev-50)
Angular grid pruning method      GridPruning ... 4 (adaptive)
Weight generation scheme         WeightScheme... mBecke (2022)
Basis function cutoff            BFCut       ... 1.0000e-11
Integration weight cutoff        WCut        ... 1.0000e-14
Partially contracted basis set               ... on
Rotationally invariant grid construction     ... off
Angular grids for H and He will be reduced by one unit

Total number of grid points                  ...    22503
Total number of batches                      ...      198
Average number of points per batch           ...      113
Average number of grid points per atom       ...      592
UseSFitting                                  ... on

GRIDX 2
-------
General Integration Accuracy     IntAcc      ... 4.020
Radial Grid Type                 RadialGrid  ... OptM3 with GC (2021)
Angular Grid (max. ang.)         AngularGrid ... 2 (Lebedev-110)
Angular grid pruning method      GridPruning ... 4 (adaptive)
Weight generation scheme         WeightScheme... mBecke (2022)
Basis function cutoff            BFCut       ... 1.0000e-11
Integration weight cutoff        WCut        ... 1.0000e-14
Partially contracted basis set               ... on
Rotationally invariant grid construction     ... off
Angular grids for H and He will be reduced by one unit

Total number of grid points                  ...    48602
Total number of batches                      ...      402
Average number of points per batch           ...      120
Average number of grid points per atom       ...     1279
UseSFitting                                  ... on

GRIDX 3
-------
General Integration Accuracy     IntAcc      ... 4.338
Radial Grid Type                 RadialGrid  ... OptM3 with GC (2021)
Angular Grid (max. ang.)         AngularGrid ... 3 (Lebedev-194)
Angular grid pruning method      GridPruning ... 4 (adaptive)
Weight generation scheme         WeightScheme... mBecke (2022)
Basis function cutoff            BFCut       ... 1.0000e-11
Integration weight cutoff        WCut        ... 1.0000e-14
Partially contracted basis set               ... on
Rotationally invariant grid construction     ... off
Angular grids for H and He will be reduced by one unit

Total number of grid points                  ...   106254
Total number of batches                      ...      850
Average number of points per batch           ...      125
Average number of grid points per atom       ...     2796
UseSFitting                                  ... on
Initializing property integral containers    ... done (  0.0 sec)

SHARK setup successfully completed in   2.1 seconds

Maximum memory used throughout the entire STARTUP-calculation: 70.4 MB


           ************************************************************
           *        Program running with 20 parallel MPI-processes    *
           *              working on a common directory               *
           ************************************************************
-------------------------------------------------------------------------------
                                 ORCA GUESS
                   Start orbitals & Density for SCF / CASSCF
-------------------------------------------------------------------------------

------------
SCF SETTINGS
------------
Hamiltonian:
 Density Functional     Method          .... DFT(GTOs)
 Exchange Functional    Exchange        .... B88
   X-Alpha parameter    XAlpha          ....  0.666667
   Becke's b parameter  XBeta           ....  0.004200
 Correlation Functional Correlation     .... LYP
 LDA part of GGA corr.  LDAOpt          .... VWN-5
 Gradients option       PostSCFGGA      .... off
 Hybrid DFT is turned on
   Fraction HF Exchange ScalHFX         ....  0.200000
   Scaling of DF-GGA-X  ScalDFX         ....  0.720000
   Scaling of DF-GGA-C  ScalDFC         ....  0.810000
   Scaling of DF-LDA-C  ScalLDAC        ....  1.000000
   Perturbative correction              ....  0.000000
   NL short-range parameter             ....  4.800000
 RI-approximation to the Coulomb term is turned on
   Number of AuxJ basis functions       .... 1178
   RIJ-COSX (HFX calculated with COS-X)).... on


General Settings:
 Integral files         IntName         .... honokiol2
 Hartree-Fock type      HFTyp           .... RHF
 Total Charge           Charge          ....    0
 Multiplicity           Mult            ....    1
 Number of Electrons    NEL             ....  142
 Basis Dimension        Dim             ....  728
 Nuclear Repulsion      ENuc            ....   1414.2625953996 Eh

Convergence Acceleration:
 AO-DIIS                CNVDIIS         .... on
   Start iteration      DIISMaxIt       ....    12
   Startup error        DIISStart       ....  0.200000
   # of expansion vecs  DIISMaxEq       ....     5
   Bias factor          DIISBfac        ....   1.050
   Max. coefficient     DIISMaxC        ....  10.000
 MO-DIIS                CNVKDIIS        .... off
 Trust-Rad. Augm. Hess. CNVTRAH         .... auto
   Auto Start mean grad. ratio tolernc. ....  1.125000
   Auto Start start iteration           ....    50
   Auto Start num. interpolation iter.  ....    10
   Max. Number of Micro iterations      ....    24
   Max. Number of Macro iterations      .... Maxiter - #DIIS iter
   Number of Davidson start vectors     ....     2
   Converg. threshold    (grad. norm)   ....   1.000e-05
   Grad. Scal. Fac. for Micro threshold ....   0.100
   Minimum threshold for Micro iter.    ....   1.000e-02
   NR start threshold (gradient norm)   ....   1.000e-04
   Initial trust radius                 ....   0.400
   Minimum AH scaling param. (alpha)    ....   1.000
   Maximum AH scaling param. (alpha)    .... 1000.000
   Quad. conv. algorithm                .... NR
   White noise on init. David. guess    .... on
   Maximum white noise                  ....   0.010
   Pseudo random numbers                .... off
   Inactive MOs                         .... canonical
   Orbital update algorithm             .... Taylor
   Preconditioner                       .... Diag
   Full preconditioner red. dimension   ....   250
 SOSCF                  CNVSOSCF        .... on
   Start iteration      SOSCFMaxIt      ....   150
   Startup grad/error   SOSCFStart      ....  0.003300
   Hessian update       SOSCFHessUp     .... L-BFGS
 Level Shifting         CNVShift        .... on
   Level shift para.    LevelShift      ....    0.2500
   Turn off err/grad.   ShiftErr        ....    0.0010
 Zerner damping         CNVZerner       .... off
 Static damping         CNVDamp         .... on
   Fraction old density DampFac         ....    0.7000
   Max. Damping (<1)    DampMax         ....    0.9800
   Min. Damping (>=0)   DampMin         ....    0.0000
   Turn off err/grad.   DampErr         ....    0.1000

SCF Procedure:
 Maximum # iterations   MaxIter         ....   125
 SCF integral mode      SCFMode         .... Direct
   Integral package                     .... SHARK and LIBINT hybrid scheme
 Reset frequency        DirectResetFreq ....    20
 Integral Threshold     Thresh          ....  2.500e-11 Eh
 Primitive CutOff       TCut            ....  2.500e-12 Eh

Convergence Tolerance:
 Convergence Check Mode ConvCheckMode   .... Total+1el-Energy
 Convergence forced     ConvForced      .... 0
 Energy Change          TolE            ....  1.000e-08 Eh
 1-El. energy change                    ....  1.000e-05 Eh
 Orbital Gradient       TolG            ....  1.000e-05
 Orbital Rotation angle TolX            ....  1.000e-05
 DIIS Error             TolErr          ....  5.000e-07

------------------------------
INITIAL GUESS: MODEL POTENTIAL
------------------------------
Loading Hartree-Fock densities                     ... done
Calculating cut-offs                               ... done
Initializing the effective Hamiltonian             ... done
Setting up the integral package (SHARK)            ... done
Starting the Coulomb interaction                   ... done (   0.1 sec)
Making the grid                                    ... done (   0.2 sec)
Mapping shells                                     ... done
Starting the XC term evaluation                    ... done (   0.1 sec)
  promolecular density results
     # of electrons  =    141.999418822
     EX              =   -114.323423667
     EC              =     -4.775518913
     EX+EC           =   -119.098942580
Transforming the Hamiltonian                       ... done (   0.0 sec)
Diagonalizing the Hamiltonian                      ... done (   0.1 sec)
Back transforming the eigenvectors                 ... done (   0.0 sec)
Now organizing SCF variables                       ... done
                      ------------------
                      INITIAL GUESS DONE (   0.6 sec)
                      ------------------
             **** ENERGY FILE WAS UPDATED (honokiol2.en.tmp) ****
Finished Guess after   1.2 sec
Maximum memory used throughout the entire GUESS-calculation: 54.9 MB


           ************************************************************
           *        Program running with 20 parallel MPI-processes    *
           *              working on a common directory               *
           ************************************************************

-------------------------------------------------------------------------------------------
                                      ORCA LEAN-SCF
                              memory conserving SCF solver
-------------------------------------------------------------------------------------------

----------------------------------------D-I-I-S--------------------------------------------
Iteration    Energy (Eh)           Delta-E    RMSDP     MaxDP     DIISErr   Damp  Time(sec)
-------------------------------------------------------------------------------------------
               ***  Starting incremental Fock matrix formation  ***
    1    -846.4262310367425926     0.00e+00  1.48e-03  1.25e-01  2.30e-01  0.700   3.5
    2    -846.6699747377547283    -2.44e-01  1.38e-03  1.43e-01  1.02e-01  0.700   2.1
                               ***Turning on AO-DIIS***
    3    -846.7758378205053305    -1.06e-01  5.15e-04  4.34e-02  3.79e-02  0.700   2.0
    4    -846.8369094184286041    -6.11e-02  7.40e-04  4.23e-02  2.13e-02  0.000   1.9
    5    -846.9677870575164889    -1.31e-01  3.26e-04  3.64e-02  4.49e-03  0.000   1.9
                              *** Initializing SOSCF ***
---------------------------------------S-O-S-C-F--------------------------------------
Iteration    Energy (Eh)           Delta-E    RMSDP     MaxDP     MaxGrad    Time(sec)
--------------------------------------------------------------------------------------
    6    -846.9683924130463311    -6.05e-04  1.15e-04  1.13e-02  1.23e-03     1.9
               *** Restarting incremental Fock matrix formation ***
    7    -846.9684281877175636    -3.58e-05  8.48e-05  8.03e-03  2.75e-04     3.4
    8    -846.9684221988377431     5.99e-06  1.61e-05  1.38e-03  6.16e-04     2.5
    9    -846.9684335086712963    -1.13e-05  1.15e-05  9.60e-04  4.11e-05     2.2
   10    -846.9684333914365197     1.17e-07  5.28e-06  5.94e-04  4.67e-05     2.1
   11    -846.9684337117664654    -3.20e-07  3.11e-06  1.92e-04  1.49e-05     1.8
   12    -846.9684337024687011     9.30e-09  1.30e-06  6.80e-05  1.87e-05     1.8
                 **** Energy Check signals convergence ****

               *****************************************************
               *                     SUCCESS                       *
               *           SCF CONVERGED AFTER  12 CYCLES          *
               *****************************************************

Recomputing exchange energy using gridx3       ... done (    5.342 sec)
Old exchange energy                            :    -23.254154798 Eh
New exchange energy                            :    -23.254161997 Eh
Exchange energy change after final integration :     -0.000007199 Eh
Total energy after final integration           :   -846.968440902 Eh
             **** ENERGY FILE WAS UPDATED (honokiol2.en.tmp) ****

----------------
TOTAL SCF ENERGY
----------------

Total Energy       :       -846.96844090179252 Eh          -23047.18297 eV

Components:
Nuclear Repulsion  :       1414.26259539955254 Eh           38484.04171 eV
Electronic Energy  :      -2261.23102910202124 Eh          -61531.22449 eV
One Electron Energy:      -3956.36092345152883 Eh         -107658.05396 eV
Two Electron Energy:       1695.12989434950759 Eh           46126.82947 eV

Virial components:
Potential Energy   :      -1690.10999948024732 Eh          -45990.23118 eV
Kinetic Energy     :        843.14155857845481 Eh           22943.04821 eV
Virial Ratio       :          2.00453883726214

DFT components:
N(Alpha)           :       71.000070523780 electrons
N(Beta)            :       71.000070523780 electrons
N(Total)           :      142.000141047559 electrons
E(X)               :      -92.379881382749 Eh       
E(C)               :       -5.639848033879 Eh       
E(XC)              :      -98.019729416628 Eh       

---------------
SCF CONVERGENCE
---------------

  Last Energy change         ...   -9.2978e-09  Tolerance :   1.0000e-08
  Last MAX-Density change    ...    6.8039e-05  Tolerance :   1.0000e-07
  Last RMS-Density change    ...    1.3030e-06  Tolerance :   5.0000e-09
  Last DIIS Error            ...    1.2312e-03  Tolerance :   5.0000e-07
  Last Orbital Gradient      ...    1.8707e-05  Tolerance :   1.0000e-05
  Last Orbital Rotation      ...    3.2265e-05  Tolerance :   1.0000e-05


----------------
ORBITAL ENERGIES
----------------

  NO   OCC          E(Eh)            E(eV) 
   0   2.0000     -19.154934      -521.2323 
   1   2.0000     -19.148244      -521.0502 
   2   2.0000     -10.238834      -278.6128 
   3   2.0000     -10.229129      -278.3487 
   4   2.0000     -10.198159      -277.5060 
   5   2.0000     -10.195297      -277.4281 
   6   2.0000     -10.190361      -277.2938 
   7   2.0000     -10.185763      -277.1687 
   8   2.0000     -10.184798      -277.1424 
   9   2.0000     -10.181160      -277.0434 
  10   2.0000     -10.180550      -277.0269 
  11   2.0000     -10.179942      -277.0103 
  12   2.0000     -10.174828      -276.8711 
  13   2.0000     -10.174219      -276.8546 
  14   2.0000     -10.173707      -276.8407 
  15   2.0000     -10.172196      -276.7995 
  16   2.0000     -10.168713      -276.7048 
  17   2.0000     -10.168649      -276.7030 
  18   2.0000     -10.163748      -276.5696 
  19   2.0000     -10.160486      -276.4809 
  20   2.0000      -1.063014       -28.9261 
  21   2.0000      -1.055855       -28.7313 
  22   2.0000      -0.872274       -23.7358 
  23   2.0000      -0.853221       -23.2173 
  24   2.0000      -0.822303       -22.3760 
  25   2.0000      -0.798923       -21.7398 
  26   2.0000      -0.775948       -21.1146 
  27   2.0000      -0.764969       -20.8159 
  28   2.0000      -0.743056       -20.2196 
  29   2.0000      -0.723490       -19.6872 
  30   2.0000      -0.697174       -18.9711 
  31   2.0000      -0.676329       -18.4038 
  32   2.0000      -0.635671       -17.2975 
  33   2.0000      -0.621147       -16.9023 
  34   2.0000      -0.596766       -16.2388 
  35   2.0000      -0.589148       -16.0315 
  36   2.0000      -0.578078       -15.7303 
  37   2.0000      -0.554949       -15.1009 
  38   2.0000      -0.551313       -15.0020 
  39   2.0000      -0.539070       -14.6688 
  40   2.0000      -0.499335       -13.5876 
  41   2.0000      -0.493486       -13.4284 
  42   2.0000      -0.485179       -13.2024 
  43   2.0000      -0.474894       -12.9225 
  44   2.0000      -0.461900       -12.5689 
  45   2.0000      -0.455981       -12.4079 
  46   2.0000      -0.445335       -12.1182 
  47   2.0000      -0.433816       -11.8047 
  48   2.0000      -0.431550       -11.7431 
  49   2.0000      -0.428004       -11.6466 
  50   2.0000      -0.421285       -11.4638 
  51   2.0000      -0.417956       -11.3732 
  52   2.0000      -0.409153       -11.1336 
  53   2.0000      -0.405584       -11.0365 
  54   2.0000      -0.399434       -10.8692 
  55   2.0000      -0.394275       -10.7288 
  56   2.0000      -0.376733       -10.2514 
  57   2.0000      -0.369513       -10.0550 
  58   2.0000      -0.367391        -9.9972 
  59   2.0000      -0.358692        -9.7605 
  60   2.0000      -0.354252        -9.6397 
  61   2.0000      -0.349874        -9.5206 
  62   2.0000      -0.339547        -9.2395 
  63   2.0000      -0.332373        -9.0443 
  64   2.0000      -0.323782        -8.8106 
  65   2.0000      -0.287525        -7.8240 
  66   2.0000      -0.265167        -7.2156 
  67   2.0000      -0.261267        -7.1094 
  68   2.0000      -0.259275        -7.0552 
  69   2.0000      -0.230248        -6.2654 
  70   2.0000      -0.212547        -5.7837 
  71   0.0000      -0.031019        -0.8441 
  72   0.0000      -0.026753        -0.7280 
  73   0.0000      -0.009004        -0.2450 
  74   0.0000      -0.001876        -0.0510 
  75   0.0000       0.002572         0.0700 
  76   0.0000       0.023411         0.6371 
  77   0.0000       0.035361         0.9622 
  78   0.0000       0.050058         1.3621 
  79   0.0000       0.050884         1.3846 
  80   0.0000       0.060559         1.6479 
  81   0.0000       0.065214         1.7746 
*Only the first 10 virtual orbitals were printed.

                    ********************************
                    * MULLIKEN POPULATION ANALYSIS *
                    ********************************

-----------------------
MULLIKEN ATOMIC CHARGES
-----------------------
   0 O :   -0.395417
   1 O :   -0.398799
   2 C :    0.154205
   3 C :    0.058512
   4 C :    0.086120
   5 C :   -0.277749
   6 C :    0.124692
   7 C :   -0.256860
   8 C :    0.193834
   9 C :   -0.250218
  10 C :    0.255470
  11 C :   -0.250573
  12 C :   -0.192446
  13 C :   -0.138642
  14 C :   -0.197793
  15 C :   -0.226929
  16 C :   -0.145959
  17 C :   -0.088339
  18 C :   -0.264728
  19 C :   -0.265975
  20 H :    0.122960
  21 H :    0.120903
  22 H :    0.145180
  23 H :    0.129811
  24 H :    0.117444
  25 H :    0.101623
  26 H :    0.105734
  27 H :    0.095118
  28 H :    0.111800
  29 H :    0.105071
  30 H :    0.117502
  31 H :    0.101528
  32 H :    0.322063
  33 H :    0.322842
  34 H :    0.124614
  35 H :    0.123577
  36 H :    0.108677
  37 H :    0.101146
Sum of atomic charges:    0.0000000

--------------------------------
MULLIKEN REDUCED ORBITAL CHARGES
--------------------------------
  0 O s       :     3.765737  s :     3.765737
      pz      :     1.475160  p :     4.597084
      px      :     1.400708
      py      :     1.721216
      dz2     :     0.010210  d :     0.030905
      dxz     :     0.004143
      dyz     :     0.006760
      dx2y2   :     0.004112
      dxy     :     0.005680
      f0      :     0.000248  f :     0.001692
      f+1     :     0.000386
      f-1     :     0.000259
      f+2     :     0.000196
      f-2     :     0.000169
      f+3     :     0.000072
      f-3     :     0.000362

  1 O s       :     3.764863  s :     3.764863
      pz      :     1.536711  p :     4.601547
      px      :     1.334630
      py      :     1.730206
      dz2     :     0.005331  d :     0.030692
      dxz     :     0.012261
      dyz     :     0.003868
      dx2y2   :     0.004451
      dxy     :     0.004781
      f0      :     0.000020  f :     0.001697
      f+1     :     0.000382
      f-1     :     0.000048
      f+2     :     0.000303
      f-2     :     0.000221
      f+3     :     0.000322
      f-3     :     0.000401

  2 C s       :     3.234241  s :     3.234241
      pz      :     0.826233  p :     2.495483
      px      :     0.752288
      py      :     0.916962
      dz2     :     0.021755  d :     0.106449
      dxz     :     0.025252
      dyz     :     0.019102
      dx2y2   :     0.020562
      dxy     :     0.019778
      f0      :     0.001577  f :     0.009622
      f+1     :     0.001394
      f-1     :     0.001386
      f+2     :     0.001514
      f-2     :     0.001463
      f+3     :     0.001169
      f-3     :     0.001118

  3 C s       :     3.275486  s :     3.275486
      pz      :     0.875050  p :     2.536318
      px      :     0.735076
      py      :     0.926192
      dz2     :     0.027293  d :     0.119959
      dxz     :     0.026684
      dyz     :     0.019593
      dx2y2   :     0.023238
      dxy     :     0.023151
      f0      :     0.001474  f :     0.009725
      f+1     :     0.002177
      f-1     :     0.000691
      f+2     :     0.001286
      f-2     :     0.001772
      f+3     :     0.001143
      f-3     :     0.001182

  4 C s       :     3.208093  s :     3.208093
      pz      :     0.832851  p :     2.578667
      px      :     0.826365
      py      :     0.919451
      dz2     :     0.029415  d :     0.117485
      dxz     :     0.024903
      dyz     :     0.019351
      dx2y2   :     0.021784
      dxy     :     0.022033
      f0      :     0.001510  f :     0.009635
      f+1     :     0.001953
      f-1     :     0.000771
      f+2     :     0.001517
      f-2     :     0.001542
      f+3     :     0.001431
      f-3     :     0.000912

  5 C s       :     3.249408  s :     3.249408
      pz      :     0.999651  p :     2.935003
      px      :     0.957929
      py      :     0.977423
      dz2     :     0.016611  d :     0.085723
      dxz     :     0.018543
      dyz     :     0.011202
      dx2y2   :     0.016518
      dxy     :     0.022849
      f0      :     0.000632  f :     0.007615
      f+1     :     0.001530
      f-1     :     0.000745
      f+2     :     0.001074
      f-2     :     0.001238
      f+3     :     0.001385
      f-3     :     0.001010

  6 C s       :     3.171915  s :     3.171915
      pz      :     0.843566  p :     2.569451
      px      :     0.832876
      py      :     0.893009
      dz2     :     0.027947  d :     0.124143
      dxz     :     0.029077
      dyz     :     0.020323
      dx2y2   :     0.026992
      dxy     :     0.019805
      f0      :     0.001358  f :     0.009798
      f+1     :     0.001766
      f-1     :     0.001432
      f+2     :     0.001535
      f-2     :     0.001330
      f+3     :     0.001444
      f-3     :     0.000933

  7 C s       :     3.272196  s :     3.272196
      pz      :     0.943853  p :     2.895928
      px      :     0.961782
      py      :     0.990293
      dz2     :     0.016550  d :     0.081171
      dxz     :     0.019059
      dyz     :     0.018717
      dx2y2   :     0.011559
      dxy     :     0.015286
      f0      :     0.001448  f :     0.007565
      f+1     :     0.001207
      f-1     :     0.000809
      f+2     :     0.000908
      f-2     :     0.001418
      f+3     :     0.001244
      f-3     :     0.000530

  8 C s       :     3.065944  s :     3.065944
      pz      :     0.749575  p :     2.554641
      px      :     0.913607
      py      :     0.891460
      dz2     :     0.040114  d :     0.169974
      dxz     :     0.034963
      dyz     :     0.038429
      dx2y2   :     0.031068
      dxy     :     0.025399
      f0      :     0.003151  f :     0.015607
      f+1     :     0.002606
      f-1     :     0.002647
      f+2     :     0.002288
      f-2     :     0.002031
      f+3     :     0.001737
      f-3     :     0.001146

  9 C s       :     3.268455  s :     3.268455
      pz      :     0.936040  p :     2.889522
      px      :     0.993449
      py      :     0.960033
      dz2     :     0.015849  d :     0.084970
      dxz     :     0.028388
      dyz     :     0.011121
      dx2y2   :     0.018035
      dxy     :     0.011577
      f0      :     0.001396  f :     0.007270
      f+1     :     0.001143
      f-1     :     0.000683
      f+2     :     0.001229
      f-2     :     0.000976
      f+3     :     0.001260
      f-3     :     0.000583

 10 C s       :     3.046252  s :     3.046252
      pz      :     0.890192  p :     2.511635
      px      :     0.743637
      py      :     0.877807
      dz2     :     0.033102  d :     0.171093
      dxz     :     0.046706
      dyz     :     0.024673
      dx2y2   :     0.032786
      dxy     :     0.033826
      f0      :     0.002093  f :     0.015549
      f+1     :     0.003122
      f-1     :     0.000875
      f+2     :     0.001864
      f-2     :     0.002926
      f+3     :     0.002709
      f-3     :     0.001960

 11 C s       :     3.285018  s :     3.285018
      pz      :     0.999748  p :     2.879722
      px      :     0.962150
      py      :     0.917824
      dz2     :     0.011685  d :     0.080408
      dxz     :     0.014992
      dyz     :     0.019693
      dx2y2   :     0.013354
      dxy     :     0.020684
      f0      :     0.000315  f :     0.005424
      f+1     :     0.000862
      f-1     :     0.000488
      f+2     :     0.000845
      f-2     :     0.001262
      f+3     :     0.000654
      f-3     :     0.000997

 12 C s       :     3.247222  s :     3.247222
      pz      :     0.876752  p :     2.857386
      px      :     0.956732
      py      :     1.023902
      dz2     :     0.031706  d :     0.082313
      dxz     :     0.015190
      dyz     :     0.015124
      dx2y2   :     0.012313
      dxy     :     0.007980
      f0      :     0.001084  f :     0.005526
      f+1     :     0.001397
      f-1     :     0.000848
      f+2     :     0.000700
      f-2     :     0.000660
      f+3     :     0.000098
      f-3     :     0.000738

 13 C s       :     3.208311  s :     3.208311
      pz      :     0.939152  p :     2.840540
      px      :     0.946953
      py      :     0.954435
      dz2     :     0.023728  d :     0.082371
      dxz     :     0.017552
      dyz     :     0.018469
      dx2y2   :     0.012571
      dxy     :     0.010051
      f0      :     0.001407  f :     0.007419
      f+1     :     0.000926
      f-1     :     0.001254
      f+2     :     0.001249
      f-2     :     0.001182
      f+3     :     0.000518
      f-3     :     0.000883

 14 C s       :     3.266223  s :     3.266223
      pz      :     0.977742  p :     2.849825
      px      :     0.908613
      py      :     0.963471
      dz2     :     0.012421  d :     0.074172
      dxz     :     0.017285
      dyz     :     0.010180
      dx2y2   :     0.013928
      dxy     :     0.020357
      f0      :     0.000600  f :     0.007573
      f+1     :     0.001484
      f-1     :     0.000784
      f+2     :     0.001058
      f-2     :     0.001279
      f+3     :     0.001371
      f-3     :     0.000995

 15 C s       :     3.276354  s :     3.276354
      pz      :     0.947634  p :     2.870531
      px      :     0.945372
      py      :     0.977524
      dz2     :     0.015475  d :     0.072473
      dxz     :     0.015402
      dyz     :     0.016336
      dx2y2   :     0.013047
      dxy     :     0.012211
      f0      :     0.001379  f :     0.007572
      f+1     :     0.001177
      f-1     :     0.000841
      f+2     :     0.000972
      f-2     :     0.001418
      f+3     :     0.001250
      f-3     :     0.000535

 16 C s       :     3.243857  s :     3.243857
      pz      :     0.987276  p :     2.816013
      px      :     0.941205
      py      :     0.887532
      dz2     :     0.004257  d :     0.079310
      dxz     :     0.019351
      dyz     :     0.012967
      dx2y2   :     0.014949
      dxy     :     0.027786
      f0      :     0.000873  f :     0.006779
      f+1     :     0.000455
      f-1     :     0.000515
      f+2     :     0.001081
      f-2     :     0.000972
      f+3     :     0.001387
      f-3     :     0.001496

 17 C s       :     3.212378  s :     3.212378
      pz      :     0.919100  p :     2.790364
      px      :     0.915220
      py      :     0.956043
      dz2     :     0.027224  d :     0.078572
      dxz     :     0.014323
      dyz     :     0.008353
      dx2y2   :     0.019374
      dxy     :     0.009298
      f0      :     0.001176  f :     0.007025
      f+1     :     0.001023
      f-1     :     0.001092
      f+2     :     0.001397
      f-2     :     0.000995
      f+3     :     0.000678
      f-3     :     0.000665

 18 C s       :     3.267174  s :     3.267174
      pz      :     1.005198  p :     2.950200
      px      :     0.911586
      py      :     1.033416
      dz2     :     0.002687  d :     0.042633
      dxz     :     0.012504
      dyz     :     0.002518
      dx2y2   :     0.006790
      dxy     :     0.018134
      f0      :     0.000827  f :     0.004721
      f+1     :     0.000308
      f-1     :     0.000203
      f+2     :     0.000677
      f-2     :     0.000805
      f+3     :     0.001056
      f-3     :     0.000844

 19 C s       :     3.262190  s :     3.262190
      pz      :     0.971391  p :     2.957652
      px      :     1.022748
      py      :     0.963514
      dz2     :     0.012079  d :     0.041279
      dxz     :     0.009795
      dyz     :     0.003185
      dx2y2   :     0.012499
      dxy     :     0.003722
      f0      :     0.000629  f :     0.004854
      f+1     :     0.000677
      f-1     :     0.000828
      f+2     :     0.000998
      f-2     :     0.000682
      f+3     :     0.000447
      f-3     :     0.000591

 20 H s       :     0.854547  s :     0.854547
      pz      :     0.011766  p :     0.022494
      px      :     0.003817
      py      :     0.006910

 21 H s       :     0.856678  s :     0.856678
      pz      :     0.007223  p :     0.022419
      px      :     0.006394
      py      :     0.008802

 22 H s       :     0.832799  s :     0.832799
      pz      :     0.007343  p :     0.022020
      px      :     0.010213
      py      :     0.004464

 23 H s       :     0.848621  s :     0.848621
      pz      :     0.005925  p :     0.021568
      px      :     0.008536
      py      :     0.007106

 24 H s       :     0.860204  s :     0.860204
      pz      :     0.010316  p :     0.022352
      px      :     0.004859
      py      :     0.007177

 25 H s       :     0.876703  s :     0.876703
      pz      :     0.004226  p :     0.021675
      px      :     0.004647
      py      :     0.012802

 26 H s       :     0.872258  s :     0.872258
      pz      :     0.004511  p :     0.022008
      px      :     0.011832
      py      :     0.005665

 27 H s       :     0.882567  s :     0.882567
      pz      :     0.004707  p :     0.022315
      px      :     0.011622
      py      :     0.005986

 28 H s       :     0.865709  s :     0.865709
      pz      :     0.011831  p :     0.022490
      px      :     0.003587
      py      :     0.007072

 29 H s       :     0.872457  s :     0.872457
      pz      :     0.007469  p :     0.022472
      px      :     0.005990
      py      :     0.009013

 30 H s       :     0.860126  s :     0.860126
      pz      :     0.006583  p :     0.022372
      px      :     0.007680
      py      :     0.008109

 31 H s       :     0.876417  s :     0.876417
      pz      :     0.004003  p :     0.022055
      px      :     0.004809
      py      :     0.013244

 32 H s       :     0.629785  s :     0.629785
      pz      :     0.011459  p :     0.048152
      px      :     0.020658
      py      :     0.016035

 33 H s       :     0.627131  s :     0.627131
      pz      :     0.018912  p :     0.050027
      px      :     0.016122
      py      :     0.014993

 34 H s       :     0.852902  s :     0.852902
      pz      :     0.006017  p :     0.022483
      px      :     0.004743
      py      :     0.011723

 35 H s       :     0.854646  s :     0.854646
      pz      :     0.006231  p :     0.021777
      px      :     0.008183
      py      :     0.007362

 36 H s       :     0.869079  s :     0.869079
      pz      :     0.009864  p :     0.022243
      px      :     0.007976
      py      :     0.004403

 37 H s       :     0.876872  s :     0.876872
      pz      :     0.003914  p :     0.021982
      px      :     0.004881
      py      :     0.013186



                     *******************************
                     * LOEWDIN POPULATION ANALYSIS *
                     *******************************

----------------------
LOEWDIN ATOMIC CHARGES
----------------------
   0 O :    0.085707
   1 O :    0.089637
   2 C :   -0.096579
   3 C :   -0.124676
   4 C :   -0.129092
   5 C :   -0.074276
   6 C :   -0.150348
   7 C :   -0.069801
   8 C :   -0.232462
   9 C :   -0.118796
  10 C :   -0.235919
  11 C :   -0.202352
  12 C :   -0.200401
  13 C :   -0.115923
  14 C :   -0.115645
  15 C :   -0.119289
  16 C :   -0.196205
  17 C :   -0.187689
  18 C :   -0.215640
  19 C :   -0.221115
  20 H :    0.152656
  21 H :    0.153210
  22 H :    0.152296
  23 H :    0.150513
  24 H :    0.153591
  25 H :    0.145910
  26 H :    0.147107
  27 H :    0.143674
  28 H :    0.149647
  29 H :    0.147507
  30 H :    0.144149
  31 H :    0.139402
  32 H :    0.184487
  33 H :    0.183113
  34 H :    0.123843
  35 H :    0.123121
  36 H :    0.118698
  37 H :    0.117938

-------------------------------
LOEWDIN REDUCED ORBITAL CHARGES
-------------------------------
  0 O s       :     3.322053  s :     3.322053
      pz      :     1.483581  p :     4.516226
      px      :     1.385334
      py      :     1.647310
      dz2     :     0.022850  d :     0.071162
      dxz     :     0.013489
      dyz     :     0.014681
      dx2y2   :     0.009773
      dxy     :     0.010369
      f0      :     0.000893  f :     0.004852
      f+1     :     0.001157
      f-1     :     0.000967
      f+2     :     0.000465
      f-2     :     0.000488
      f+3     :     0.000081
      f-3     :     0.000801

  1 O s       :     3.319201  s :     3.319201
      pz      :     1.527198  p :     4.515680
      px      :     1.345370
      py      :     1.643111
      dz2     :     0.008358  d :     0.070677
      dxz     :     0.028949
      dyz     :     0.006204
      dx2y2   :     0.013890
      dxy     :     0.013276
      f0      :     0.000275  f :     0.004806
      f+1     :     0.001500
      f-1     :     0.000225
      f+2     :     0.000641
      f-2     :     0.000539
      f+3     :     0.000797
      f-3     :     0.000830

  2 C s       :     2.695645  s :     2.695645
      pz      :     0.992324  p :     2.852526
      px      :     0.932233
      py      :     0.927969
      dz2     :     0.112282  d :     0.492900
      dxz     :     0.119960
      dyz     :     0.092359
      dx2y2   :     0.084346
      dxy     :     0.083953
      f0      :     0.007963  f :     0.055509
      f+1     :     0.009318
      f-1     :     0.009601
      f+2     :     0.009333
      f-2     :     0.006870
      f+3     :     0.006216
      f-3     :     0.006208

  3 C s       :     2.697606  s :     2.697606
      pz      :     1.002488  p :     2.860345
      px      :     0.966467
      py      :     0.891390
      dz2     :     0.121057  d :     0.509890
      dxz     :     0.138829
      dyz     :     0.077716
      dx2y2   :     0.083772
      dxy     :     0.088518
      f0      :     0.007770  f :     0.056834
      f+1     :     0.014102
      f-1     :     0.005441
      f+2     :     0.006830
      f-2     :     0.009961
      f+3     :     0.006941
      f-3     :     0.005789

  4 C s       :     2.708829  s :     2.708829
      pz      :     0.968425  p :     2.868731
      px      :     0.987047
      py      :     0.913259
      dz2     :     0.110825  d :     0.495850
      dxz     :     0.137096
      dyz     :     0.073515
      dx2y2   :     0.087860
      dxy     :     0.086554
      f0      :     0.008599  f :     0.055682
      f+1     :     0.012213
      f-1     :     0.005943
      f+2     :     0.005686
      f-2     :     0.009617
      f+3     :     0.007434
      f-3     :     0.006190

  5 C s       :     2.749457  s :     2.749457
      pz      :     0.965148  p :     2.894776
      px      :     1.016391
      py      :     0.913236
      dz2     :     0.079624  d :     0.387558
      dxz     :     0.093707
      dyz     :     0.048908
      dx2y2   :     0.082165
      dxy     :     0.083152
      f0      :     0.003935  f :     0.042485
      f+1     :     0.010092
      f-1     :     0.003243
      f+2     :     0.005543
      f-2     :     0.007335
      f+3     :     0.006893
      f-3     :     0.005445

  6 C s       :     2.709500  s :     2.709500
      pz      :     0.943702  p :     2.871771
      px      :     0.989974
      py      :     0.938096
      dz2     :     0.117442  d :     0.511919
      dxz     :     0.124113
      dyz     :     0.086903
      dx2y2   :     0.092907
      dxy     :     0.090553
      f0      :     0.007770  f :     0.057157
      f+1     :     0.010168
      f-1     :     0.009078
      f+2     :     0.010042
      f-2     :     0.006893
      f+3     :     0.006303
      f-3     :     0.006904

  7 C s       :     2.747791  s :     2.747791
      pz      :     0.978692  p :     2.893794
      px      :     0.985146
      py      :     0.929956
      dz2     :     0.077876  d :     0.385554
      dxz     :     0.110635
      dyz     :     0.077295
      dx2y2   :     0.051748
      dxy     :     0.068000
      f0      :     0.007826  f :     0.042663
      f+1     :     0.008013
      f-1     :     0.005872
      f+2     :     0.005814
      f-2     :     0.005061
      f+3     :     0.005792
      f-3     :     0.004286

  8 C s       :     2.711036  s :     2.711036
      pz      :     0.842028  p :     2.753048
      px      :     0.981486
      py      :     0.929534
      dz2     :     0.181846  d :     0.672928
      dxz     :     0.145222
      dyz     :     0.140667
      dx2y2   :     0.102005
      dxy     :     0.103187
      f0      :     0.019302  f :     0.095451
      f+1     :     0.016894
      f-1     :     0.018143
      f+2     :     0.014219
      f-2     :     0.010480
      f+3     :     0.008295
      f-3     :     0.008119

  9 C s       :     2.757844  s :     2.757844
      pz      :     0.989519  p :     2.926189
      px      :     1.004764
      py      :     0.931907
      dz2     :     0.075005  d :     0.391802
      dxz     :     0.135049
      dyz     :     0.053981
      dx2y2   :     0.073185
      dxy     :     0.054582
      f0      :     0.007988  f :     0.042960
      f+1     :     0.007744
      f-1     :     0.005570
      f+2     :     0.004419
      f-2     :     0.006345
      f+3     :     0.006385
      f-3     :     0.004510

 10 C s       :     2.711444  s :     2.711444
      pz      :     1.004389  p :     2.753389
      px      :     0.880888
      py      :     0.868112
      dz2     :     0.127597  d :     0.675526
      dxz     :     0.188095
      dyz     :     0.089846
      dx2y2   :     0.133024
      dxy     :     0.136964
      f0      :     0.011902  f :     0.095560
      f+1     :     0.020072
      f-1     :     0.006710
      f+2     :     0.010386
      f-2     :     0.017657
      f+3     :     0.016952
      f-3     :     0.011881

 11 C s       :     2.762265  s :     2.762265
      pz      :     1.009570  p :     3.021615
      px      :     0.997072
      py      :     1.014972
      dz2     :     0.051601  d :     0.380022
      dxz     :     0.075533
      dyz     :     0.088932
      dx2y2   :     0.068395
      dxy     :     0.095561
      f0      :     0.004118  f :     0.038450
      f+1     :     0.005781
      f-1     :     0.005090
      f+2     :     0.004309
      f-2     :     0.005991
      f+3     :     0.005077
      f-3     :     0.008085

 12 C s       :     2.763377  s :     2.763377
      pz      :     0.989616  p :     3.018027
      px      :     1.008975
      py      :     1.019435
      dz2     :     0.119601  d :     0.380607
      dxz     :     0.079864
      dyz     :     0.061901
      dx2y2   :     0.071846
      dxy     :     0.047394
      f0      :     0.006368  f :     0.038390
      f+1     :     0.007099
      f-1     :     0.007473
      f+2     :     0.005108
      f-2     :     0.006694
      f+3     :     0.001169
      f-3     :     0.004479

 13 C s       :     2.756710  s :     2.756710
      pz      :     1.016737  p :     2.923238
      px      :     0.959500
      py      :     0.947002
      dz2     :     0.110146  d :     0.392458
      dxz     :     0.086629
      dyz     :     0.087019
      dx2y2   :     0.053711
      dxy     :     0.054954
      f0      :     0.006911  f :     0.043516
      f+1     :     0.007159
      f-1     :     0.008616
      f+2     :     0.007392
      f-2     :     0.005732
      f+3     :     0.002876
      f-3     :     0.004830

 14 C s       :     2.759747  s :     2.759747
      pz      :     0.972518  p :     2.946116
      px      :     1.036190
      py      :     0.937409
      dz2     :     0.070406  d :     0.366839
      dxz     :     0.095965
      dyz     :     0.047554
      dx2y2   :     0.077454
      dxy     :     0.075460
      f0      :     0.003915  f :     0.042943
      f+1     :     0.009876
      f-1     :     0.003255
      f+2     :     0.005884
      f-2     :     0.007501
      f+3     :     0.006993
      f-3     :     0.005519

 15 C s       :     2.758894  s :     2.758894
      pz      :     1.009683  p :     2.951315
      px      :     0.993871
      py      :     0.947761
      dz2     :     0.074626  d :     0.366097
      dxz     :     0.100539
      dyz     :     0.076457
      dx2y2   :     0.053522
      dxy     :     0.060952
      f0      :     0.007665  f :     0.042983
      f+1     :     0.007914
      f-1     :     0.006029
      f+2     :     0.005996
      f-2     :     0.005139
      f+3     :     0.005714
      f-3     :     0.004527

 16 C s       :     2.798853  s :     2.798853
      pz      :     0.889272  p :     2.956395
      px      :     1.085161
      py      :     0.981962
      dz2     :     0.027215  d :     0.399563
      dxz     :     0.074799
      dyz     :     0.053641
      dx2y2   :     0.100627
      dxy     :     0.143282
      f0      :     0.003781  f :     0.041394
      f+1     :     0.003913
      f-1     :     0.003301
      f+2     :     0.006904
      f-2     :     0.003732
      f+3     :     0.008930
      f-3     :     0.010834

 17 C s       :     2.796553  s :     2.796553
      pz      :     0.990823  p :     2.952396
      px      :     0.928207
      py      :     1.033366
      dz2     :     0.113691  d :     0.396918
      dxz     :     0.071437
      dyz     :     0.073773
      dx2y2   :     0.089372
      dxy     :     0.048645
      f0      :     0.005791  f :     0.041822
      f+1     :     0.005934
      f-1     :     0.007264
      f+2     :     0.007651
      f-2     :     0.007135
      f+3     :     0.003788
      f-3     :     0.004260

 18 C s       :     2.858013  s :     2.858013
      pz      :     0.970566  p :     3.088023
      px      :     1.097463
      py      :     1.019994
      dz2     :     0.014400  d :     0.241621
      dxz     :     0.051398
      dyz     :     0.010881
      dx2y2   :     0.063108
      dxy     :     0.101835
      f0      :     0.003537  f :     0.027982
      f+1     :     0.003075
      f-1     :     0.000879
      f+2     :     0.004397
      f-2     :     0.002704
      f+3     :     0.006800
      f-3     :     0.006590

 19 C s       :     2.855548  s :     2.855548
      pz      :     1.040680  p :     3.097636
      px      :     0.998333
      py      :     1.058623
      dz2     :     0.057324  d :     0.239687
      dxz     :     0.047068
      dyz     :     0.045025
      dx2y2   :     0.065858
      dxy     :     0.024412
      f0      :     0.003127  f :     0.028244
      f+1     :     0.003822
      f-1     :     0.005187
      f+2     :     0.004915
      f-2     :     0.005398
      f+3     :     0.002479
      f-3     :     0.003317

 20 H s       :     0.788413  s :     0.788413
      pz      :     0.029649  p :     0.058931
      px      :     0.010726
      py      :     0.018555

 21 H s       :     0.787787  s :     0.787787
      pz      :     0.018904  p :     0.059003
      px      :     0.017186
      py      :     0.022913

 22 H s       :     0.788514  s :     0.788514
      pz      :     0.019711  p :     0.059190
      px      :     0.026319
      py      :     0.013160

 23 H s       :     0.791604  s :     0.791604
      pz      :     0.017068  p :     0.057883
      px      :     0.022694
      py      :     0.018121

 24 H s       :     0.788514  s :     0.788514
      pz      :     0.026196  p :     0.057895
      px      :     0.013806
      py      :     0.017893

 25 H s       :     0.796569  s :     0.796569
      pz      :     0.011767  p :     0.057521
      px      :     0.012878
      py      :     0.032875

 26 H s       :     0.795570  s :     0.795570
      pz      :     0.012029  p :     0.057323
      px      :     0.028408
      py      :     0.016886

 27 H s       :     0.798186  s :     0.798186
      pz      :     0.013204  p :     0.058140
      px      :     0.028782
      py      :     0.016154

 28 H s       :     0.790992  s :     0.790992
      pz      :     0.029584  p :     0.059361
      px      :     0.010871
      py      :     0.018906

 29 H s       :     0.793201  s :     0.793201
      pz      :     0.019513  p :     0.059293
      px      :     0.016485
      py      :     0.023295

 30 H s       :     0.797037  s :     0.797037
      pz      :     0.016857  p :     0.058814
      px      :     0.019957
      py      :     0.022000

 31 H s       :     0.802334  s :     0.802334
      pz      :     0.011746  p :     0.058264
      px      :     0.013796
      py      :     0.032721

 32 H s       :     0.658719  s :     0.658719
      pz      :     0.030763  p :     0.156793
      px      :     0.075946
      py      :     0.050084

 33 H s       :     0.657121  s :     0.657121
      pz      :     0.071714  p :     0.159766
      px      :     0.047018
      py      :     0.041034

 34 H s       :     0.814110  s :     0.814110
      pz      :     0.016609  p :     0.062048
      px      :     0.013354
      py      :     0.032084

 35 H s       :     0.815210  s :     0.815210
      pz      :     0.018087  p :     0.061669
      px      :     0.021228
      py      :     0.022354

 36 H s       :     0.819695  s :     0.819695
      pz      :     0.025460  p :     0.061607
      px      :     0.021311
      py      :     0.014836

 37 H s       :     0.820788  s :     0.820788
      pz      :     0.012312  p :     0.061274
      px      :     0.014665
      py      :     0.034298



                      *****************************
                      * MAYER POPULATION ANALYSIS *
                      *****************************

  NA   - Mulliken gross atomic population
  ZA   - Total nuclear charge
  QA   - Mulliken gross atomic charge
  VA   - Mayer's total valence
  BVA  - Mayer's bonded valence
  FA   - Mayer's free valence

  ATOM       NA         ZA         QA         VA         BVA        FA
  0 O      8.3954     8.0000    -0.3954     2.0896     2.0896    -0.0000
  1 O      8.3988     8.0000    -0.3988     2.0857     2.0857    -0.0000
  2 C      5.8458     6.0000     0.1542     3.3141     3.3141    -0.0000
  3 C      5.9415     6.0000     0.0585     3.7149     3.7149    -0.0000
  4 C      5.9139     6.0000     0.0861     3.4866     3.4866    -0.0000
  5 C      6.2777     6.0000    -0.2777     3.9705     3.9705    -0.0000
  6 C      5.8753     6.0000     0.1247     3.7266     3.7266    -0.0000
  7 C      6.2569     6.0000    -0.2569     3.8704     3.8704    -0.0000
  8 C      5.8062     6.0000     0.1938     4.0044     4.0044     0.0000
  9 C      6.2502     6.0000    -0.2502     3.8753     3.8753     0.0000
 10 C      5.7445     6.0000     0.2555     3.9477     3.9477    -0.0000
 11 C      6.2506     6.0000    -0.2506     3.9193     3.9193     0.0000
 12 C      6.1924     6.0000    -0.1924     3.8716     3.8716     0.0000
 13 C      6.1386     6.0000    -0.1386     3.9228     3.9228    -0.0000
 14 C      6.1978     6.0000    -0.1978     3.9164     3.9164     0.0000
 15 C      6.2269     6.0000    -0.2269     3.9656     3.9656     0.0000
 16 C      6.1460     6.0000    -0.1460     3.8137     3.8137    -0.0000
 17 C      6.0883     6.0000    -0.0883     3.8345     3.8345    -0.0000
 18 C      6.2647     6.0000    -0.2647     3.9079     3.9079    -0.0000
 19 C      6.2660     6.0000    -0.2660     3.9377     3.9377     0.0000
 20 H      0.8770     1.0000     0.1230     0.9808     0.9808     0.0000
 21 H      0.8791     1.0000     0.1209     0.9829     0.9829     0.0000
 22 H      0.8548     1.0000     0.1452     0.9678     0.9678    -0.0000
 23 H      0.8702     1.0000     0.1298     0.9637     0.9637     0.0000
 24 H      0.8826     1.0000     0.1174     0.9742     0.9742     0.0000
 25 H      0.8984     1.0000     0.1016     0.9697     0.9697     0.0000
 26 H      0.8943     1.0000     0.1057     0.9689     0.9689     0.0000
 27 H      0.9049     1.0000     0.0951     0.9738     0.9738    -0.0000
 28 H      0.8882     1.0000     0.1118     0.9886     0.9886    -0.0000
 29 H      0.8949     1.0000     0.1051     0.9890     0.9890     0.0000
 30 H      0.8825     1.0000     0.1175     0.9772     0.9772     0.0000
 31 H      0.8985     1.0000     0.1015     0.9751     0.9751    -0.0000
 32 H      0.6779     1.0000     0.3221     0.9202     0.9202    -0.0000
 33 H      0.6772     1.0000     0.3228     0.9235     0.9235    -0.0000
 34 H      0.8754     1.0000     0.1246     0.9756     0.9756    -0.0000
 35 H      0.8764     1.0000     0.1236     0.9758     0.9758    -0.0000
 36 H      0.8913     1.0000     0.1087     0.9742     0.9742    -0.0000
 37 H      0.8989     1.0000     0.1011     0.9779     0.9779     0.0000

  Mayer bond orders larger than 0.100000
B(  0-O ,  8-C ) :   1.1575 B(  0-O , 32-H ) :   0.8657 B(  1-O , 10-C ) :   1.1336 
B(  1-O , 33-H ) :   0.8620 B(  2-C ,  3-C ) :   0.8587 B(  2-C ,  7-C ) :   1.3187 
B(  2-C ,  8-C ) :   1.2348 B(  3-C ,  5-C ) :   1.4247 B(  3-C ,  9-C ) :   1.3278 
B(  4-C ,  5-C ) :   1.3456 B(  4-C , 10-C ) :   1.2623 B(  4-C , 11-C ) :   0.9040 
B(  5-C , 20-H ) :   0.9532 B(  6-C ,  7-C ) :   1.3861 B(  6-C , 12-C ) :   0.9136 
B(  6-C , 13-C ) :   1.3661 B(  7-C , 21-H ) :   0.9694 B(  8-C , 15-C ) :   1.4228 
B(  9-C , 14-C ) :   1.4107 B(  9-C , 22-H ) :   0.9840 B( 10-C , 14-C ) :   1.4063 
B( 11-C , 16-C ) :   0.9565 B( 11-C , 23-H ) :   0.9789 B( 11-C , 24-H ) :   0.9664 
B( 12-C , 17-C ) :   0.9658 B( 12-C , 25-H ) :   0.9639 B( 12-C , 26-H ) :   0.9728 
B( 13-C , 15-C ) :   1.4214 B( 13-C , 27-H ) :   0.9768 B( 14-C , 28-H ) :   0.9824 
B( 15-C , 29-H ) :   0.9829 B( 16-C , 18-C ) :   1.8941 B( 16-C , 30-H ) :   0.9564 
B( 17-C , 19-C ) :   1.9264 B( 17-C , 31-H ) :   0.9546 B( 18-C , 34-H ) :   0.9673 
B( 18-C , 35-H ) :   0.9637 B( 19-C , 36-H ) :   0.9662 B( 19-C , 37-H ) :   0.9627 


-------
TIMINGS
-------

Total SCF time: 0 days 0 hours 0 min 33 sec 

Total time                  ....      33.461 sec
Sum of individual times     ....      33.489 sec  (100.1%)

SCF preparation             ....       0.660 sec  (  2.0%)
Fock matrix formation       ....      29.954 sec  ( 89.5%)
  Startup                   ....       0.071 sec  (  0.2% of F)
  Split-RI-J                ....       3.046 sec  ( 10.2% of F)
  Chain of spheres X        ....      23.174 sec  ( 77.4% of F)
  XC integration            ....       3.407 sec  ( 11.4% of F)
    XC Preparation          ....       0.000 sec  (  0.0% of XC)
    Basis function eval.    ....       0.792 sec  ( 23.2% of XC)
    Density eval.           ....       0.924 sec  ( 27.1% of XC)
    XC-Functional eval.     ....       0.064 sec  (  1.9% of XC)
    XC-Potential eval.      ....       1.274 sec  ( 37.4% of XC)
Diagonalization             ....       0.000 sec  (  0.0%)
Density matrix formation    ....       0.263 sec  (  0.8%)
Total Energy calculation    ....       0.121 sec  (  0.4%)
Population analysis         ....       0.111 sec  (  0.3%)
Orbital Transformation      ....       0.298 sec  (  0.9%)
Orbital Orthonormalization  ....       0.000 sec  (  0.0%)
DIIS solution               ....       1.289 sec  (  3.9%)
SOSCF solution              ....       0.792 sec  (  2.4%)
Finished LeanSCF after  33.5 sec

Maximum memory used throughout the entire LEANSCF-calculation: 103.9 MB

-------------------------   --------------------
FINAL SINGLE POINT ENERGY      -846.968440901793
-------------------------   --------------------



           ************************************************************
           *        Program running with 20 parallel MPI-processes    *
           *              working on a common directory               *
           ************************************************************

------------------------------------------------------------------------------
                              ORCA PROPERTY CALCULATIONS
------------------------------------------------------------------------------

GBWName                                 ... honokiol2.gbw
Number of atoms                         ...     38
Number of basis functions               ...    728
Max core memory                         ...   5000 MB

Electric properties:
Dipole moment                           ... YES
Quadrupole moment                       ...  NO
Static polarizability (Dipole/Dipole)   ...  NO
Static polarizability (Dipole/Quad.)    ...  NO
Static polarizability (Quad./Quad.)     ...  NO
Static polarizability (Velocity)        ...  NO

Atomic electric properties:
Dipole moment                           ...  NO
Quadrupole moment                       ...  NO
Static polarizability                   ...  NO

Choice of electric origin               ... Center of mass
Position of electric origin             ...    -0.096899    -1.186359     0.027701

General magnetic properties:
Magnetizability                         ...  NO

EPR properties:
g-Tensor (aka g-matrix)                 ...  NO
Zero-Field splitting spin-orbit         ...  NO
Zero-field splitting spin-spin          ...  NO
Hyperfine couplings                     ...  NO (   0 nuclei)
Quadrupole couplings                    ...  NO (   0 nuclei)
Contact density                         ...  NO (   0 nuclei)

NMR properties:
Chemical shifts                         ...  NO (   0 nuclei)
Spin-rotation constants                 ...  NO (   0 nuclei)
Spin-spin couplings                     ...  NO (   0 nuclei,    0 pairs)

Choice of magnetic origin               ... GIAO
Position of magnetic origin             ...     0.000000     0.000000     0.000000

Properties with geometric perturbations:
SCF Hessian                             ...  NO
IR spectrum                             ...  NO
VCD spectrum                            ...  NO
X-ray spectroscopy properties:
SCF XES/XAS/RIXS spectra                ...  NO


-------------
DIPOLE MOMENT
-------------

Method             : SCF
Type of density    : Electron Density
Multiplicity       :   1
Irrep              :   0
Energy             :  -846.9684409017925191 Eh
Relativity type    : 
Basis              : AO
                                X                 Y                 Z
Electronic contribution:      2.703161964       2.804542125      12.612986667
Nuclear contribution   :     -3.541266284      -3.164442279     -13.319972826
                        -----------------------------------------
Total Dipole Moment    :     -0.838104320      -0.359900154      -0.706986159
                        -----------------------------------------
Magnitude (a.u.)       :      1.154026170
Magnitude (Debye)      :      2.933301412



--------------------
Rotational spectrum 
--------------------
 
Rotational constants in cm-1:             0.016354             0.006232             0.004761 
Rotational constants in MHz :           490.285606           186.833160           142.743851 

Dipole components along the rotational axes: 
x,y,z [a.u.] :    -0.672692    -0.932399     0.099467 
x,y,z [Debye]:    -1.709848    -2.369970     0.252825 

 

Dipole moment calculation done in   0.0 sec 

Maximum memory used throughout the entire PROP-calculation: 57.3 MB

--------------------------------
SUGGESTED CITATIONS FOR THIS RUN
--------------------------------

Below you find a list of papers that are relevant to this ORCA run
We neither can nor want to force you to cite these papers, but we appreciate if you do
You receive ORCA, which is the product of decades of hard work by many enthusiastic individuals, for free
The only thing we kindly ask in return is that you cite our papers,
We deeply appreciate it, if you show your appreciation for ORCA by not just citing the generic ORCA reference.

Please note that relegating all ORCA citations to the supporting information does *not* help us.
SI sections are not indexed - citations you put there will not count into any citation statistics
But we need these citations in order to attract the funding resources that allow us to do what we are doing

Therefore, if you are a happy ORCA user, please consider citing a few of the papers listed below in the main body of your paper

In addition to the list printed below, the program has created the file honokiol2.bibtex that contains the list in bibtex format
You can import this file easily into all common literature databanks and citation aid programs


List of essential papers. We consider these as the minimum necessary citations

  1. Neese,F.
     Software update: the ORCA program system, version 5.0
     WIRES Comput. Molec. Sci., 2022 12(1)e1606
     doi.org/10.1002/wcms.1606

List of papers to cite with high priority. The work reported in these papers was absolutely
necessary for this run to complete.
Our perspective: the developers of density functionals and basis sets usually get cited in chemistry papers
Good! But without the algorithms to do something with them, the functionals or basis sets would not do anything.
Hence, in our opinion, the algorithm design and method developments papers are equally worthy of getting cited

  1. Neese,F.
     An improvement of the resolution of the identity approximation for the formation of the Coulomb matrix
     J. Comp. Chem., 2003 24(14)1740-1747
     doi.org/10.1002/jcc.10318
  2. Neese,F.; Wennmohs,F.; Hansen,A.; Becker,U.
     Efficient, approximate and parallel Hartree-Fock and hybrid DFT calculations. A 'chain-of-spheres' algorithm for the Hartree-Fock exchange
     Chem. Phys., 2009 356(1-3)98-109
     doi.org/10.1016/j.chemphys.2008.10.036
  3. Helmich-Paris,B.; de Souza,B.; Neese,F.; Izsák,R.
     An improved chain of spheres for exchange algorithm
     J. Chem. Phys., 2021 155 104109
     doi.org/doi: 10.1063/5.0058766.
  4. Neese,F.
     The SHARK Integral Generation and Digestion System
     J. Comp. Chem., 2022  1-16
     doi.org/10.1002/jcc.26942

List of suggested additional citations. These are papers that are important in the 'surrounding' of 
of this run, or papers that preceded the highly important papers. If you like your results we are grateful for a citation.

  1. Izsak,R.; Neese,F.
     An overlap fitted chain of spheres exchange method
     J. Chem. Phys., 2011 135 144105
     doi.org/10.1063/1.3646921
  2. Izsak,R.; Hansen,A.; Neese,F.
     The resolution of identity and chain of spheres approximations for the LPNO-CCSD singles Fock term
     Molec. Phys., 2012 110 2413-2417
     doi.org/10.1080/00268976.2012.687466
  3. Neese,F.
     The ORCA program system
     WIRES Comput. Molec. Sci., 2012 2(1)73-78
     doi.org/10.1002/wcms.81
  4. Izsak,R.; Neese,F.; Klopper,W.
     Robust fitting techniques in the chain of spheres approximation to the Fock exchange: The role of the complementary space
     J. Chem. Phys., 2013 139 
     doi.org/10.1063/1.4819264
  5. Neese,F.
     Software update: the ORCA program system, version 4.0
     WIRES Comput. Molec. Sci., 2018 8(1)1-6
     doi.org/10.1002/wcms.1327
  6. Neese,F.; Wennmohs,F.; Becker,U.; Riplinger,C.
     The ORCA quantum chemistry program package
     J. Chem. Phys., 2020 152 Art. No. L224108
     doi.org/10.1063/5.0004608

List of optional additional citations

  1. Neese,F.
     Approximate second-order SCF convergence for spin unrestricted wavefunctions
     Chem. Phys. Lett., 2000 325(1-3)93-98
     doi.org/10.1016/s0009-2614(00)00662-x

Timings for individual modules:

Sum of individual times          ...       39.018 sec (=   0.650 min)
Startup calculation              ...        2.823 sec (=   0.047 min)   7.2 %
SCF iterations                   ...       35.332 sec (=   0.589 min)  90.6 %
Property calculations            ...        0.863 sec (=   0.014 min)   2.2 %
                             ****ORCA TERMINATED NORMALLY****
TOTAL RUN TIME: 0 days 0 hours 0 minutes 39 seconds 755 msec
