
                                 *****************
                                 * O   R   C   A *
                                 *****************

                                            #,                                       
                                            ###                                      
                                            ####                                     
                                            #####                                    
                                            ######                                   
                                           ########,                                 
                                     ,,################,,,,,                         
                               ,,#################################,,                 
                          ,,##########################################,,             
                       ,#########################################, ''#####,          
                    ,#############################################,,   '####,        
                  ,##################################################,,,,####,       
                ,###########''''           ''''###############################       
              ,#####''   ,,,,##########,,,,          '''####'''          '####       
            ,##' ,,,,###########################,,,                        '##       
           ' ,,###''''                  '''############,,,                           
         ,,##''                                '''############,,,,        ,,,,,,###''
      ,#''                                            '''#######################'''  
     '                                                          ''''####''''         
             ,#######,   #######,   ,#######,      ##                                
            ,#'     '#,  ##    ##  ,#'     '#,    #''#        ,####,   ,####,        
            ##       ##  ##   ,#'  ##            #'  '#       #'       #'  '#        
            ##       ##  #######   ##           ,######,      #####,   #    #        
            '#,     ,#'  ##    ##  '#,     ,#' ,#      #,     #,   #   #,  ,#        
             '#######'   ##     ##  '#######'  #'      '#     '####' # '####'        



                #########################################################
                #                        -***-                          #
                #          Department of theory and spectroscopy        #
                #                                                       #
                #                      Frank Neese                      #
                #                                                       #
                #     Directorship, Architecture, Infrastructure        #
                #                    SHARK, DRIVERS                     #
                #        Core code/Algorithms in most modules           #
                #                                                       #
                #        Max Planck Institute fuer Kohlenforschung      #
                #                Kaiser Wilhelm Platz 1                 #
                #                 D-45470 Muelheim/Ruhr                 #
                #                      Germany                          #
                #                                                       #
                #                  All rights reserved                  #
                #                        -***-                          #
                #########################################################


                         Program Version 6.0.1  -  RELEASE   -


 With contributions from (in alphabetic order):
[Max-Planck-Institut fuer Kohlenforschung]                               
  Daniel Aravena         : Magnetic Suceptibility                        
  Michael Atanasov       : Ab Initio Ligand Field Theory (pilot matlab implementation)
  Alexander A. Auer      : GIAO ZORA, VPT2 properties, NMR spectrum      
  Ute Becker             : All parallelization in ORCA, NUMFREQ, NUMCALC 
  Giovanni Bistoni       : ED, misc. LED, open-shell LED, HFLD           
  Martin Brehm           : Molecular dynamics                            
  Dmytro Bykov           : pre 5.0 version of the SCF Hessian            
  Marcos Casanova-Páez   : Triplet and SCS-CIS(D). UHF-(DLPNO)-IP/EA/STEOM-CCSD. UHF-CVS-IP/STEOM-CCSD   
  Vijay G. Chilkuri      : MRCI spin determinant printing, contributions to CSF-ICE 
  Pauline Colinet        : FMM embedding                                 
  Dipayan Datta          : RHF DLPNO-CCSD density                        
  Achintya Kumar Dutta   : EOM-CC, STEOM-CC                              
  Nicolas Foglia         : Exact transition moments, OPA infrastructure, MCD improvements    
  Dmitry Ganyushin       : Spin-Orbit,Spin-Spin,Magnetic field MRCI      
  Miquel Garcia-Rates    : C-PCM and meta-GGA Hessian, CCSD/C-PCM, Gaussian charge scheme 
  Tiago L. C. Gouveia    : GS-ROHF, GS-ROCIS                             
  Yang Guo               : DLPNO-NEVPT2, F12-NEVPT2, CIM, IAO-localization        
  Andreas Hansen         : Spin unrestricted coupled pair/coupled cluster methods 
  Ingolf Harden          : AUTO-CI MPn and infrastructure                
  Benjamin Helmich-Paris : MC-RPA, TRAH-(SCF,CASSCF), AVAS, COSX integrals, SCF dyn. polar. 
  Lee Huntington         : MR-EOM, pCC                                   
  Robert Izsak           : Overlap fitted RIJCOSX, COSX-SCS-MP3, EOM     
  Riya Kayal             : Wick's Theorem for AUTO-CI, AUTO-CI UHF-CCSDT 
  Emily Kempfer          : AUTO-CI, RHF CISDT and CCSDT                  
  Christian Kollmar      : KDIIS, OOCD, Brueckner-CCSD(T), CCSD density, CASPT2, CASPT2-K, improved NEVPT2 
  Axel Koslowski         : Symmetry handling                             
  Simone Kossmann        : meta-GGA functionals, TD-DFT gradient, OOMP2, (MP2 Hessian; deprecated post 5.0) 
  Lucas Lang             : DCDCAS                                        
  Marvin Lechner         : AUTO-CI (C++ implementation), FIC-MRCC        
  Spencer Leger          : CASSCF response                               
  Dagmar Lenk            : GEPOL surface, SMD, ORCA-2-JSON               
  Dimitrios Liakos       : Extrapolation schemes; Compound Job, initial MDCI parallelization 
  Dimitrios Manganas     : Further ROCIS development; embedding schemes. LFT, Crystal Embedding 
  Dimitrios Pantazis     : SARC Basis sets                               
  Anastasios Papadopoulos: AUTO-CI, single reference methods and gradients 
  Taras Petrenko         : pre 6.0 DFT Hessian and TD-DFT gradient, (ASA, deprecated), ECA, 1-Electron XAS/XES, NRVS 
  Peter Pinski           : DLPNO-MP2, DLPNO-MP2 Gradient                 
  Christoph Reimann      : Effective Core Potentials                     
  Marius Retegan         : Local ZFS, SOC                                
  Christoph Riplinger    : Optimizer, TS searches, QM/MM, DLPNO-CCSD(T), (RO)-DLPNO pert. Triples 
  Michael Roemelt        : Original ROCIS implementation                 
  Masaaki Saitow         : Open-shell DLPNO-CCSD energy and density      
  Barbara Sandhoefer     : DKH picture change effects                    
  Kantharuban Sivalingam : CASSCF convergence/infrastructure, NEVPT2 and variants, FIC-MRCI 
  Bernardo de Souza      : ESD, SOC TD-DFT                               
  Georgi L. Stoychev     : AutoAux, RI-MP2 NMR, DLPNO-MP2 response, X2C  
  Van Anh Tran           : RI-MP2 g-tensors                              
  Willem Van den Heuvel  : Paramagnetic NMR                              
  Zikuan Wang            : NOTCH, Electric field optimization            
  Frank Wennmohs         : Technical directorship and infrastructure     
  Hang Xu                : AUTO-CI-Response properties                   
                                                                         
[FACCTs GmbH]                                                            
  Markus Bursch, Miquel Garcia-Rates, Christoph Riplinger, Bernardo de Souza, Georgi L. Stoychev 
                                                                 
  APM, Basis sets (HGBS, AHGBS, def-TZVP (Ac-Lr), def2-XVPD (La-Lu)), CI-OPT, improved COSX, DLPNO-Multilevel,           
  DOCKER, DRACO, updates on ESD, GOAT, IRC, LR-CPCM, MBIS, meta-GGA TD-DFT gradient, ML-optimized integration grids, 
  MM, NACMEs, nearIR, NEB, NEB-TS, NL-DFT gradient (VV10), 2- and 3-layer-ONIOM, interface openCOSMO-RS, QMMM,   
  Crystal-QMMM, SF, symmetry and pop. for TD-DFT, r2SCAN hybrids, SOLVATOR                                   
                                                                         
[Other institutions]                                                     
  V. Asgeirsson          : NEB                                           
  Christoph Bannwarth    : sTDA-DFT, sTD-DFT, PBEh-3c, B97-3c, D3        
  Sebastian Ehlert       : rSCAN, r2SCAN, r2SCAN-3c, D4, dhf basis sets  
  Marvin Friede          : D4 for Fr, Ra, Ac-Lr                          
  Lars Goerigk           : TD-DFT with DH, B97 family of functionals     
  Stefan Grimme          : VdW corrections, initial TS optimization, DFT functionals, gCP, sTDA/sTD-DF 
  Waldemar Hujo          : DFT-NL                                        
  H. Jonsson             : NEB                                           
  Holger Kruse           : gCP                                           
  Marcel Mueller         : wB97X-3c, vDZP basis set                      
  Hagen Neugebauer       : wr2SCAN                                       
  Tobias Risthaus        : range-separated hybrid DFT                    
  Lukas Wittmann         : regularized MP2, r2SCAN double-hybrids, wr2SCAN        
                                                                         
We gratefully acknowledge several colleagues who have allowed us to      
interface, adapt or use parts of their codes:                            
  Ed Valeev, F. Pavosevic, A. Kumar             : LibInt (2-el integral package), F12 methods 
  Garnet Chan, S. Sharma, J. Yang, R. Olivares  : DMRG                   
  Ulf Ekstrom                                   : XCFun DFT Library      
  Mihaly Kallay                                 : mrcc  (arbitrary order and MRCC methods)
  Frank Weinhold                                : gennbo (NPA and NBO analysis)           
  Simon Mueller                                 : openCOSMO-RS                            
  Christopher J. Cramer and Donald G. Truhlar   : smd solvation model                     
  S Lehtola, MJT Oliveira, MAL Marques          : LibXC Library                           
  Liviu Ungur et al                             : ANISO software                          


 Your calculation uses the libint2 library for the computation of 2-el integrals
 For citations please refer to: http://libint.valeyev.net

 Your ORCA version has been built with support for libXC version: 6.2.2
 For citations please refer to: https://libxc.gitlab.io

 This ORCA versions uses:
   CBLAS   interface :  Fast vector & matrix operations
   LAPACKE interface :  Fast linear algebra routines
   SCALAPACK package :  Parallel linear algebra routines
   Shared memory     :  Shared parallel matrices
   BLAS/LAPACK       :  OpenBLAS 0.3.27  USE64BITINT DYNAMIC_ARCH NO_AFFINITY SkylakeX SINGLE_THREADED
        Core in use  :  SkylakeX
   Copyright (c) 2011-2014, The OpenBLAS Project


NOTE: MaxCore=5000 MB was set to SCF,MP2,MDCI,CIPSI,MRCI and CIS
      => If you want to overwrite this, your respective input block should be placed after the MaxCore statement
Warning: RI is on but no J-basis has been assigned. Assigning Def2/J (nothing to worry about!)
================================================================================

----- Orbital basis set information -----
Your calculation utilizes the basis: def2-TZVP
   F. Weigend and R. Ahlrichs, Phys. Chem. Chem. Phys. 7, 3297 (2005).

----- AuxJ basis set information -----
Your calculation utilizes the auxiliary basis: def2/J
   F. Weigend, Phys. Chem. Chem. Phys. 8, 1057 (2006).

================================================================================
                                        WARNINGS
                       Please study these warnings very carefully!
================================================================================


WARNING: Geometry Optimization
  ===> : Switching off AutoStart
         For restart on a previous wavefunction, please use MOREAD

================================================================================
                                       INPUT FILE
================================================================================
NAME = honokiol2-opt_FEC2.inp
|  1> ! OPT B3LYP def2-TZVP TightSCF
|  2> 
|  3> %maxcore 5000
|  4> 
|  5> %pal
|  6> nprocs 25
|  7> end
|  8> 
|  9> * xyz 0 1
| 10> O           1.68925613972526      1.77701602056532      2.34774490626602
| 11>   O          -3.62739945933353     -1.64003207009546      2.12374236059804
| 12>   C           1.46346219113207      0.21474877534373      0.47941655959022
| 13>   C           0.12812303626012     -0.28500272019253      0.90629414074171
| 14>   C          -2.26320555696038     -0.52585179357113      0.44814933272997
| 15>   C          -0.99096462442473     -0.08338621932145      0.09438542623833
| 16>   C           3.28288155607930      0.16972695461393     -1.16167362409070
| 17>   C           2.04024647718541     -0.25985075874735     -0.70124437120385
| 18>   C           2.16647984945775      1.18332155771328      1.21798120343622
| 19>   C          -0.04771464011681     -0.98187873855095      2.10429579263734
| 20>   C          -2.40331362188283     -1.21643136738168      1.66026180230379
| 21>   C          -3.45773184456447     -0.22146990294074     -0.43430513297111
| 22>   C           3.88227189239995     -0.39865819967236     -2.43511769122345
| 23>   C           3.96266004223013      1.11641041883197     -0.39707563624349
| 24>   C          -1.30036094239868     -1.45188632357455      2.47322274198827
| 25>   C           3.41472725515850      1.61856966805580      0.77456682061229
| 26>   C          -4.19760266637907     -1.44812591686099     -0.89945703478177
| 27>   C           2.98410680479254     -0.27712464675519     -3.63476665783314
| 28>   C          -5.49709468218107     -1.67352662533680     -0.72411528668015
| 29>   C           2.57341632989739     -1.29132353876176     -4.38659773269037
| 30>   H          -0.87312120366089      0.47038500470473     -0.82900185811574
| 31>   H           1.49274276945187     -0.99983154899153     -1.27390943977719
| 32>   H           0.80283864869536     -1.17247813677776      2.74733169956474
| 33>   H          -4.15286201415667      0.44487126914342      0.08747530972208
| 34>   H          -3.09880171827298      0.32924451008579     -1.30775191683467
| 35>   H           4.14374269014340     -1.45192378159112     -2.28942937435898
| 36>   H           4.82136746351681      0.12753517469121     -2.63709798899037
| 37>   H           4.93680146962393      1.46730289257740     -0.71931365784295
| 38>   H          -1.43803183997292     -2.00689790215347      3.39242329505331
| 39>   H           3.94206270502421      2.35927029833451      1.36261881747350
| 40>   H          -3.59496077355180     -2.19350951710406     -1.41243425031623
| 41>   H           2.65659279007216      0.73045290806631     -3.87940255955426
| 42>   H           0.79374880711348      1.47752083778338      2.57771336778181
| 43>   H          -4.23007211156516     -1.77531780175721      1.37602910213362
| 44>   H          -5.97134517804334     -2.57480312201398     -1.09155880292200
| 45>   H          -6.13867032883798     -0.95080104222285     -0.22955288986350
| 46>   H           1.92877194299273     -1.13778792896847     -5.24303201191542
| 47>   H           2.87044672779637     -2.31302978209369     -4.17417010510643
| 48>   H          -5.00958513891719      1.18084575197092      3.30150384609915
| 49>   H          -3.89960463169661     -0.50822231728916      4.64153058693716
| 50>   O          -2.32592711277789      0.77557704541437      5.01384900505898
| 51>   C          -3.73571190516556      0.50850414031521      4.99707009323867
| 52>   C          -4.27554253702092      1.54399241622713      4.01715336625947
| 53>   C          -2.00287765771112      1.58373906325893      3.98914914095995
| 54>   O          -0.90320450474970      1.89848783177597      3.67522154808605
| 55>   O          -3.13522047459067      1.98396239155189      3.33083151749122
| 56>   F          -4.83601556582916      2.60978340051262      4.68456820411982
| 57>   H          -4.13766897282427      0.64798011630106      5.99784490539890
| 58>   H           1.26965113903050      5.97693054077769     -0.86490009245609
| 59>   H           2.27726438012806      4.50081394738733     -0.98859525622731
| 60>   C           1.26135393093702      4.89645727049907     -0.99055138967491
| 61>   F          -0.47035254846807      5.13602996899537      0.63259374280557
| 62>   C           0.37106202984478      4.21695871823814      0.04753679801721
| 63>   H           0.88332719731997      3.67417465129992      0.83815679763159
| 64>   O           0.63393319246074      4.57023288522098     -2.23789851934584
| 65>   O          -0.39989160040683      3.32189546420430     -0.71063274209293
| 66>   C          -0.29700100451963      3.61188861529337     -2.04542510033537
| 67>   O          -0.92792084488882      3.07759094187113     -2.89599863632683
| 68> *
| 69> 
| 70>                          ****END OF INPUT****
================================================================================

                       *****************************
                       * Geometry Optimization Run *
                       *****************************

Geometry optimization settings:
Update method            Update   .... BFGS
Choice of coordinates    CoordSys .... (2022) Redundant Internals
Initial Hessian          InHess   .... Almloef's Model
Max. no of cycles        MaxIter  .... 174

Convergence Tolerances:
Energy Change            TolE     ....  5.0000e-06 Eh
Max. Gradient            TolMAXG  ....  3.0000e-04 Eh/bohr
RMS Gradient             TolRMSG  ....  1.0000e-04 Eh/bohr
Max. Displacement        TolMAXD  ....  4.0000e-03 bohr
RMS Displacement         TolRMSD  ....  2.0000e-03 bohr
Strict Convergence                .... False

------------------------------------------------------------------------------
                        ORCA OPTIMIZATION COORDINATE SETUP
------------------------------------------------------------------------------

The optimization will be done in redundant internal coordinates (2022)
Making redundant internal coordinates   ...  (2022 redundants) done
Evaluating the initial hessian          ...  (Almloef) done
Evaluating the coordinates              ...  done
Calculating the B-matrix                .... done
Calculating the G-matrix                .... done
Diagonalizing the G-matrix              .... done
Small eigenvalue found = 3.131e-03
Small eigenvalue found = 4.060e-03
Small eigenvalue found = 7.960e-03
Small eigenvalue found = 9.579e-03
Small eigenvalue found = 1.121e-02
Small eigenvalue found = 1.633e-02
Small eigenvalue found = 1.865e-02
Small eigenvalue found = 2.489e-02
The first mode is                       ....  200
The number of degrees of freedom        ....  168

    -----------------------------------------------------------------
                    Redundant Internal Coordinates


    -----------------------------------------------------------------
         Definition                    Initial Value    Approx d2E/dq
    -----------------------------------------------------------------
      1. B(C   3,C   2)                  1.4883         0.435381   
      2. B(C   5,C   3)                  1.3972         0.608460   
      3. B(C   5,C   4)                  1.3927         0.618705   
      4. B(C   7,C   6)                  1.3931         0.617765   
      5. B(C   7,C   2)                  1.3971         0.608713   
      6. B(C   8,O   0)                  1.3626         0.618938   
      7. B(C   8,C   2)                  1.4064         0.588355   
      8. B(C   9,C   3)                  1.3971         0.608811   
      9. B(C  10,C   4)                  1.4021         0.597739   
     10. B(C  10,O   1)                  1.3757         0.589711   
     11. B(C  11,C   4)                  1.5160         0.393285   
     12. B(C  12,C   6)                  1.5179         0.390569   
     13. B(C  13,C   6)                  1.3939         0.615940   
     14. B(C  14,C   9)                  1.3879         0.629743   
     15. B(C  14,C  10)                  1.3903         0.624178   
     16. B(C  15,C  13)                  1.3875         0.630574   
     17. B(C  15,C   8)                  1.3943         0.614918   
     18. B(C  16,C  11)                  1.5061         0.407796   
     19. B(C  17,C  12)                  1.5035         0.411713   
     20. B(C  18,C  16)                  1.3305         0.777441   
     21. B(C  19,C  17)                  1.3276         0.785773   
     22. B(H  20,C   5)                  1.0831         0.369289   
     23. B(H  21,C   7)                  1.0841         0.367987   
     24. B(H  22,C   9)                  1.0832         0.369245   
     25. B(H  23,C  11)                  1.0952         0.353281   
     26. B(H  24,C  11)                  1.0932         0.355927   
     27. B(H  25,C  12)                  1.0950         0.353584   
     28. B(H  26,C  12)                  1.0953         0.353219   
     29. B(H  27,C  13)                  1.0844         0.367590   
     30. B(H  28,C  14)                  1.0826         0.370088   
     31. B(H  29,C  15)                  1.0828         0.369708   
     32. B(H  30,C  16)                  1.0872         0.363875   
     33. B(H  31,C  17)                  1.0873         0.363626   
     34. B(H  32,O   0)                  0.9719         0.497784   
     35. B(H  33,O   1)                  0.9698         0.501494   
     36. B(H  34,C  18)                  1.0827         0.369895   
     37. B(H  35,C  18)                  1.0856         0.365958   
     38. B(H  36,C  19)                  1.0829         0.369649   
     39. B(H  37,C  19)                  1.0850         0.366769   
     40. B(H  39,O   1)                  2.7739         0.000664   
     41. B(C  41,O  40)                  1.4350         0.474405   
     42. B(C  41,H  39)                  1.0895         0.360767   
     43. B(C  42,C  41)                  1.5244         0.381296   
     44. B(C  42,H  38)                  1.0876         0.363305   
     45. B(C  43,O  40)                  1.3444         0.661571   
     46. B(O  44,H  32)                  2.0643         0.008997   
     47. B(O  44,C  43)                  1.1861         1.183426   
     48. B(O  45,C  43)                  1.3696         0.603181   
     49. B(O  45,C  42)                  1.4018         0.535926   
     50. B(F  46,C  42)                  1.3768         0.545861   
     51. B(H  47,C  41)                  1.0875         0.363473   
     52. B(C  50,H  49)                  1.0902         0.359790   
     53. B(C  50,H  48)                  1.0878         0.363040   
     54. B(C  52,F  51)                  1.3766         0.546240   
     55. B(C  52,C  50)                  1.5271         0.377607   
     56. B(H  53,C   8)                  2.8276         0.000608   
     57. B(H  53,H  32)                  2.8035         0.000127   
     58. B(H  53,O   0)                  2.5549         0.001484   
     59. B(H  53,C  52)                  1.0872         0.363758   
     60. B(H  53,F  51)                  2.0029         0.010474   
     61. B(H  53,C  15)                  3.2615         0.000124   
     62. B(O  54,C  50)                  1.4339         0.476321   
     63. B(O  55,C  52)                  1.4037         0.532162   
     64. B(O  55,H  53)                  2.0419         0.009768   
     65. B(O  55,H  20)                  2.8929         0.000429   
     66. B(C  56,O  55)                  1.3698         0.602702   
     67. B(C  56,O  54)                  1.3499         0.648522   
     68. B(O  57,C  56)                  1.1862         1.183223   
     69. A(C   8,O   0,H  53)           86.7966         0.163608   
     70. A(C   8,O   0,H  32)          112.6218         0.367249   
     71. A(H  32,O   0,H  53)           94.4726         0.150211   
     72. A(C  10,O   1,H  33)          109.6413         0.364682   
     73. A(C   3,C   2,C   8)          121.9469         0.403778   
     74. A(C   7,C   2,C   8)          118.1243         0.428583   
     75. A(C   3,C   2,C   7)          119.9158         0.406211   
     76. A(C   2,C   3,C   5)          120.2314         0.406181   
     77. A(C   5,C   3,C   9)          117.9997         0.431188   
     78. A(C   2,C   3,C   9)          121.7606         0.406223   
     79. A(C   5,C   4,C  10)          117.8647         0.431060   
     80. A(C  10,C   4,C  11)          121.5599         0.397720   
     81. A(C   5,C   4,C  11)          120.5412         0.400138   
     82. A(C   3,C   5,H  20)          118.8174         0.353292   
     83. A(C   4,C   5,H  20)          118.5795         0.354293   
     84. A(C   3,C   5,C   4)          122.5633         0.432439   
     85. A(C   7,C   6,C  12)          120.9342         0.399544   
     86. A(C  12,C   6,C  13)          121.4624         0.399336   
     87. A(C   7,C   6,C  13)          117.5907         0.433272   
     88. A(C   6,C   7,H  21)          119.1031         0.353990   
     89. A(C   2,C   7,H  21)          118.0200         0.353106   
     90. A(C   2,C   7,C   6)          122.8755         0.432353   
     91. A(C  15,C   8,H  53)           95.0805         0.151116   
     92. A(C   2,C   8,H  53)          108.0173         0.150498   
     93. A(O   0,C   8,C   2)          124.0861         0.427061   
     94. A(O   0,C   8,H  53)           64.4440         0.150695   
     95. A(O   0,C   8,C  15)          116.1811         0.430457   
     96. A(C   2,C   8,C  15)          119.7018         0.429364   
     97. A(C  14,C   9,H  22)          119.4288         0.355350   
     98. A(C   3,C   9,H  22)          119.8688         0.353319   
     99. A(C   3,C   9,C  14)          120.6958         0.433862   
    100. A(C   4,C  10,C  14)          120.6420         0.431743   
    101. A(O   1,C  10,C  14)          117.1769         0.427884   
    102. A(O   1,C  10,C   4)          122.1294         0.424580   
    103. A(C   4,C  11,C  16)          113.7857         0.372124   
    104. A(H  23,C  11,H  24)          106.4127         0.289439   
    105. A(C  16,C  11,H  24)          108.9549         0.328401   
    106. A(C   4,C  11,H  24)          107.9104         0.326446   
    107. A(C  16,C  11,H  23)          109.3213         0.327997   
    108. A(C   4,C  11,H  23)          110.1785         0.326045   
    109. A(C   6,C  12,C  17)          113.7803         0.372293   
    110. A(H  25,C  12,H  26)          106.3750         0.289131   
    111. A(C  17,C  12,H  26)          109.0396         0.328506   
    112. A(C   6,C  12,H  26)          108.2641         0.325665   
    113. A(C  17,C  12,H  25)          109.0601         0.328562   
    114. A(C   6,C  12,H  25)          110.0515         0.325720   
    115. A(C   6,C  13,C  15)          121.0920         0.434875   
    116. A(C  15,C  13,H  27)          119.2470         0.355158   
    117. A(C   6,C  13,H  27)          119.6609         0.353748   
    118. A(C   9,C  14,H  28)          120.9388         0.355487   
    119. A(C  10,C  14,H  28)          118.8457         0.354952   
    120. A(C   9,C  14,C  10)          120.2154         0.435813   
    121. A(C  13,C  15,H  53)          123.4405         0.132548   
    122. A(C   8,C  15,H  53)           59.7162         0.132300   
    123. A(C  13,C  15,H  29)          120.9194         0.355505   
    124. A(C   8,C  15,H  29)          118.4764         0.353992   
    125. A(C   8,C  15,C  13)          120.6036         0.434745   
    126. A(H  29,C  15,H  53)           86.3459         0.122377   
    127. A(C  11,C  16,C  18)          125.2441         0.419342   
    128. A(C  18,C  16,H  30)          119.1724         0.367434   
    129. A(C  11,C  16,H  30)          115.5829         0.329601   
    130. A(C  12,C  17,C  19)          125.0922         0.420857   
    131. A(C  19,C  17,H  31)          119.1635         0.368064   
    132. A(C  12,C  17,H  31)          115.7435         0.330085   
    133. A(H  34,C  18,H  35)          116.7388         0.292812   
    134. A(C  16,C  18,H  35)          121.6322         0.367794   
    135. A(C  16,C  18,H  34)          121.6089         0.368470   
    136. A(H  36,C  19,H  37)          116.8290         0.292884   
    137. A(C  17,C  19,H  37)          121.5879         0.368608   
    138. A(C  17,C  19,H  36)          121.5828         0.369103   
    139. A(C   5,H  20,O  55)          119.1343         0.132703   
    140. A(O  44,H  32,H  53)          101.3251         0.100452   
    141. A(O   0,H  32,H  53)           65.3084         0.117404   
    142. A(O   0,H  32,O  44)          145.1268         0.181042   
    143. A(C  41,O  40,C  43)          109.8183         0.413186   
    144. A(H  39,C  41,O  40)          108.9834         0.335455   
    145. A(C  42,C  41,H  47)          111.9349         0.325910   
    146. A(O  40,C  41,H  47)          109.1785         0.335872   
    147. A(H  39,C  41,H  47)          111.3712         0.291351   
    148. A(O  40,C  41,C  42)          103.2382         0.377547   
    149. A(H  39,C  41,C  42)          111.7682         0.325510   
    150. A(O  45,C  42,F  46)          108.9984         0.406286   
    151. A(C  41,C  42,F  46)          111.0008         0.385194   
    152. A(H  38,C  42,F  46)          107.6204         0.342388   
    153. A(C  41,C  42,O  45)          103.8779         0.385622   
    154. A(H  38,C  42,O  45)          109.3705         0.342754   
    155. A(H  38,C  42,C  41)          115.7965         0.325886   
    156. A(O  44,C  43,O  45)          124.1773         0.479451   
    157. A(O  40,C  43,O  45)          110.0813         0.431296   
    158. A(O  40,C  43,O  44)          125.7329         0.487702   
    159. A(H  32,O  44,C  43)          148.0732         0.218914   
    160. A(C  42,O  45,C  43)          110.2132         0.415361   
    161. A(C  52,C  50,O  54)          103.5927         0.377176   
    162. A(H  49,C  50,O  54)          109.0710         0.335529   
    163. A(H  48,C  50,O  54)          109.2572         0.336031   
    164. A(H  49,C  50,C  52)          112.3685         0.324845   
    165. A(H  48,C  50,C  52)          111.5861         0.325326   
    166. A(H  48,C  50,H  49)          110.6797         0.291172   
    167. A(H  53,C  52,O  55)          109.4638         0.342421   
    168. A(F  51,C  52,O  55)          108.6372         0.405830   
    169. A(C  50,C  52,O  55)          103.6959         0.384498   
    170. A(F  51,C  52,H  53)          108.1944         0.342499   
    171. A(C  50,C  52,H  53)          116.2173         0.325432   
    172. A(C  50,C  52,F  51)          110.3765         0.384590   
    173. A(C   8,H  53,C  15)           25.2033         0.096824   
    174. A(C  15,H  53,H  32)           62.8100         0.093390   
    175. A(O   0,H  53,C  15)           45.4679         0.098461   
    176. A(C  15,H  53,C  52)          131.7705         0.122254   
    177. A(C   8,H  53,H  32)           40.6153         0.095298   
    178. A(O   0,H  53,C   8)           28.7595         0.102572   
    179. A(C   8,H  53,C  52)          138.7007         0.136704   
    180. A(O   0,H  53,H  32)           20.2190         0.096616   
    181. A(H  32,H  53,C  52)          145.8255         0.115769   
    182. A(O   0,H  53,C  52)          161.6192         0.146688   
    183. A(C  50,O  54,C  56)          109.8319         0.412022   
    184. A(H  20,O  55,C  56)          100.4332         0.144990   
    185. A(H  20,O  55,C  52)          137.7712         0.143434   
    186. A(C  52,O  55,C  56)          110.4919         0.414782   
    187. A(O  55,C  56,O  57)          124.2936         0.479365   
    188. A(O  54,C  56,O  57)          125.7586         0.485893   
    189. A(O  54,C  56,O  55)          109.9408         0.429694   
    190. D(C   9,C   3,C   2,C   7)    117.8842         0.012941   
    191. D(C   9,C   3,C   2,C   8)    -63.4576         0.012941   
    192. D(C   5,C   3,C   2,C   8)    117.6081         0.012941   
    193. D(C   5,C   3,C   2,C   7)    -61.0501         0.012941   
    194. D(C   4,C   5,C   3,C   9)      1.2634         0.025562   
    195. D(C   3,C   5,C   4,C  11)    176.9072         0.026482   
    196. D(H  20,C   5,C   3,C   9)    178.9344         0.025562   
    197. D(C   4,C   5,C   3,C   2)   -179.7629         0.025562   
    198. D(H  20,C   5,C   4,C  10)   -178.6710         0.026482   
    199. D(C   3,C   5,C   4,C  10)     -0.9947         0.026482   
    200. D(H  20,C   5,C   4,C  11)     -0.7692         0.026482   
    201. D(H  20,C   5,C   3,C   2)     -2.0918         0.025562   
    202. D(C   6,C   7,C   2,C   8)      0.9906         0.025584   
    203. D(C   6,C   7,C   2,C   3)    179.6995         0.025584   
    204. D(H  21,C   7,C   6,C  13)   -179.6572         0.026396   
    205. D(H  21,C   7,C   2,C   3)     -0.7467         0.025584   
    206. D(H  21,C   7,C   6,C  12)     -0.9327         0.026396   
    207. D(C   2,C   7,C   6,C  13)     -0.1081         0.026396   
    208. D(C   2,C   7,C   6,C  12)    178.6164         0.026396   
    209. D(H  21,C   7,C   2,C   8)   -179.4557         0.025584   
    210. D(C  15,C   8,C   2,C   7)     -1.2985         0.025865   
    211. D(C  15,C   8,O   0,H  32)    176.2919         0.033722   
    212. D(C  15,C   8,C   2,C   3)   -179.9798         0.025865   
    213. D(O   0,C   8,C   2,C   7)    176.5978         0.025865   
    214. D(O   0,C   8,C   2,C   3)     -2.0835         0.025865   
    215. D(C  15,C   8,O   0,H  53)     82.7779         0.033722   
    216. D(H  53,C   8,O   0,H  32)     93.5140         0.033722   
    217. D(H  53,C   8,C   2,C   3)    -72.9576         0.025865   
    218. D(C   2,C   8,O   0,H  32)     -1.6719         0.033722   
    219. D(C   2,C   8,O   0,H  53)    -95.1859         0.033722   
    220. D(C  14,C   9,C   3,C   2)   -179.2289         0.025593   
    221. D(H  22,C   9,C   3,C   5)    178.7872         0.025593   
    222. D(H  22,C   9,C   3,C   2)     -0.1700         0.025593   
    223. D(C  14,C   9,C   3,C   5)     -0.2717         0.025593   
    224. D(C  14,C  10,C   4,C  11)   -178.1470         0.024621   
    225. D(O   1,C  10,C   4,C   5)    177.0446         0.024621   
    226. D(O   1,C  10,C   4,C  11)     -0.8346         0.024621   
    227. D(C  14,C  10,O   1,H  33)   -156.2127         0.027954   
    228. D(C   4,C  10,O   1,H  33)     26.3865         0.027954   
    229. D(C  14,C  10,C   4,C   5)     -0.2677         0.024621   
    230. D(H  24,C  11,C   4,C   5)      1.5263         0.011497   
    231. D(H  23,C  11,C   4,C  10)     63.5555         0.011497   
    232. D(H  23,C  11,C   4,C   5)   -114.2676         0.011497   
    233. D(C  16,C  11,C   4,C  10)    -59.6196         0.011497   
    234. D(C  16,C  11,C   4,C   5)    122.5573         0.011497   
    235. D(H  26,C  12,C   6,C   7)    176.2731         0.011347   
    236. D(H  25,C  12,C   6,C  13)    110.8280         0.011347   
    237. D(H  25,C  12,C   6,C   7)    -67.8467         0.011347   
    238. D(C  17,C  12,C   6,C  13)   -126.4397         0.011347   
    239. D(C  17,C  12,C   6,C   7)     54.8856         0.011347   
    240. D(H  27,C  13,C   6,C  12)      0.7039         0.026231   
    241. D(H  27,C  13,C   6,C   7)    179.4213         0.026231   
    242. D(C  15,C  13,C   6,C  12)   -179.1916         0.026231   
    243. D(C  15,C  13,C   6,C   7)     -0.4743         0.026231   
    244. D(H  28,C  14,C  10,C   4)   -178.6755         0.026981   
    245. D(C   9,C  14,C  10,C   4)      1.2240         0.026981   
    246. D(C   9,C  14,C  10,O   1)   -176.2175         0.026981   
    247. D(H  28,C  14,C   9,H  22)     -0.1113         0.027495   
    248. D(H  28,C  14,C   9,C   3)    178.9517         0.027495   
    249. D(C  10,C  14,C   9,H  22)    179.9912         0.027495   
    250. D(H  28,C  14,C  10,O   1)      3.8829         0.026981   
    251. D(C  10,C  14,C   9,C   3)     -0.9458         0.027495   
    252. D(C  13,C  15,C   8,O   0)   -177.2957         0.030530   
    253. D(C   8,C  15,C  13,C   6)      0.1474         0.029967   
    254. D(H  53,C  15,C  13,C   6)    -71.7023         0.029967   
    255. D(H  29,C  15,C  13,H  27)      0.5526         0.029967   
    256. D(H  29,C  15,C  13,C   6)   -179.5514         0.029967   
    257. D(C   8,C  15,C  13,H  27)   -179.7486         0.029967   
    258. D(H  29,C  15,C   8,H  53)     66.3766         0.030530   
    259. D(H  29,C  15,C   8,C   2)   -179.5311         0.030530   
    260. D(H  29,C  15,C   8,O   0)      2.4103         0.030530   
    261. D(C  13,C  15,C   8,H  53)   -113.3294         0.030530   
    262. D(C  13,C  15,C   8,C   2)      0.7629         0.030530   
    263. D(C  18,C  16,C  11,H  24)   -114.7913         0.012322   
    264. D(C  18,C  16,C  11,H  23)      1.1214         0.012322   
    265. D(H  30,C  16,C  11,H  23)   -178.5964         0.012322   
    266. D(H  30,C  16,C  11,C   4)    -54.9547         0.012322   
    267. D(C  18,C  16,C  11,C   4)    124.7631         0.012322   
    268. D(H  31,C  17,C  12,H  25)    179.9936         0.012551   
    269. D(H  31,C  17,C  12,C   6)     56.7190         0.012551   
    270. D(C  19,C  17,C  12,H  26)    116.1004         0.012551   
    271. D(C  19,C  17,C  12,H  25)      0.3297         0.012551   
    272. D(C  19,C  17,C  12,C   6)   -122.9448         0.012551   
    273. D(H  35,C  18,C  16,H  30)   -179.1549         0.043414   
    274. D(H  35,C  18,C  16,C  11)      1.1366         0.043414   
    275. D(H  34,C  18,C  16,H  30)     -0.8404         0.043414   
    276. D(H  34,C  18,C  16,C  11)    179.4511         0.043414   
    277. D(H  37,C  19,C  17,H  31)   -179.5727         0.044448   
    278. D(H  37,C  19,C  17,C  12)      0.0805         0.044448   
    279. D(H  36,C  19,C  17,H  31)      0.6392         0.044448   
    280. D(H  36,C  19,C  17,C  12)   -179.7075         0.044448   
    281. D(O  55,H  20,C   5,C   4)    106.6128         0.116566   
    282. D(O  55,H  20,C   5,C   3)    -71.1521         0.116566   
    283. D(H  53,H  32,O   0,C   8)    -88.3881         0.342688   
    284. D(O  44,H  32,O   0,H  53)    -73.6380         0.342688   
    285. D(O  44,H  32,O   0,C   8)   -162.0261         0.342688   
    286. D(H  47,C  41,O  40,C  43)   -132.6280         0.017746   
    287. D(C  42,C  41,O  40,C  43)    -13.4106         0.017746   
    288. D(H  39,C  41,O  40,C  43)    105.5244         0.017746   
    289. D(O  45,C  42,C  41,H  47)    133.6347         0.011583   
    290. D(O  45,C  42,C  41,O  40)     16.3408         0.011583   
    291. D(O  45,C  42,C  41,H  39)   -100.6455         0.011583   
    292. D(H  38,C  42,C  41,H  47)   -106.4394         0.011583   
    293. D(H  38,C  42,C  41,O  40)    136.2667         0.011583   
    294. D(H  38,C  42,C  41,H  39)     19.2805         0.011583   
    295. D(O  45,C  43,O  40,C  41)      5.2182         0.032442   
    296. D(O  44,C  43,O  40,C  41)   -173.7565         0.032442   
    297. D(H  32,O  44,C  43,O  45)    -90.9052         0.121298   
    298. D(H  32,O  44,C  43,O  40)     87.9308         0.121298   
    299. D(C  43,O  44,H  32,H  53)    116.9618         0.001542   
    300. D(C  43,O  44,H  32,O   0)    179.7202         0.001542   
    301. D(C  42,O  45,C  43,O  44)   -174.6522         0.026591   
    302. D(C  42,O  45,C  43,O  40)      6.3538         0.026591   
    303. D(C  43,O  45,C  42,F  46)    104.1760         0.022832   
    304. D(C  43,O  45,C  42,C  41)    -14.2151         0.022832   
    305. D(C  43,O  45,C  42,H  38)   -138.4108         0.022832   
    306. D(H  53,C  52,C  50,O  54)    135.4431         0.011372   
    307. D(H  53,C  52,C  50,H  49)     17.8615         0.011372   
    308. D(H  53,C  52,C  50,H  48)   -107.1331         0.011372   
    309. D(F  51,C  52,C  50,O  54)   -100.9022         0.011372   
    310. D(F  51,C  52,C  50,H  49)    141.5162         0.011372   
    311. D(F  51,C  52,C  50,H  48)     16.5216         0.011372   
    312. D(C  15,H  53,O   0,C   8)    -32.2704         0.001502   
    313. D(C   8,H  53,O   0,H  32)   -112.4606         0.001502   
    314. D(H  32,H  53,O   0,C   8)    112.4606         0.001502   
    315. D(C  52,H  53,O   0,H  32)    -54.5729         0.001502   
    316. D(C  52,H  53,O   0,C   8)     57.8876         0.001502   
    317. D(C   8,H  53,C  52,O  55)     38.0160         0.175258   
    318. D(C   8,H  53,C  52,F  51)    156.2412         0.175258   
    319. D(C   8,H  53,C  52,C  50)    -78.9812         0.175258   
    320. D(H  32,H  53,C  52,F  51)     88.0198         0.175258   
    321. D(H  32,H  53,C  52,C  50)   -147.2026         0.175258   
    322. D(O   0,H  53,C  52,O  55)     -0.1154         0.175258   
    323. D(O   0,H  53,C  52,C  50)   -117.1126         0.175258   
    324. D(C  15,H  53,H  32,O  44)    173.5436         0.001500   
    325. D(C  15,H  53,H  32,O   0)     27.5648         0.001500   
    326. D(C   8,H  53,H  32,O   0)     43.0809         0.001500   
    327. D(O   0,H  53,H  32,O  44)    145.9788         0.001500   
    328. D(C  52,H  53,H  32,O  44)    -61.2431         0.001500   
    329. D(C  52,H  53,H  32,O   0)    152.7782         0.001500   
    330. D(H  32,H  53,C  15,H  29)   -102.0582         0.001500   
    331. D(H  32,H  53,C  15,C  13)    132.8529         0.001500   
    332. D(H  32,H  53,C  15,C   8)     24.1386         0.001500   
    333. D(O   0,H  53,C  15,H  29)    -89.0934         0.001500   
    334. D(O   0,H  53,C  15,C  13)    145.8177         0.001500   
    335. D(O   0,H  53,C  15,C   8)     37.1034         0.001500   
    336. D(C  52,H  53,C  15,H  29)    115.9179         0.001500   
    337. D(C  52,H  53,C  15,C  13)     -9.1709         0.001500   
    338. D(C  52,H  53,C  15,C   8)   -117.8852         0.001500   
    339. D(C   8,H  53,H  32,O  44)   -170.9404         0.001500   
    340. D(C  15,H  53,C   8,O   0)    116.6458         0.001500   
    341. D(H  32,H  53,C   8,C  15)   -146.0282         0.001500   
    342. D(H  32,H  53,C   8,C   2)     90.4669         0.001500   
    343. D(O   0,H  53,C  52,F  51)    118.1098         0.175258   
    344. D(H  32,H  53,C   8,O   0)    -29.3824         0.001500   
    345. D(O   0,H  53,C   8,C  15)   -116.6458         0.001500   
    346. D(O   0,H  53,C   8,C   2)    119.8493         0.001500   
    347. D(H  32,H  53,C  52,O  55)    -30.2055         0.175258   
    348. D(C  52,H  53,C   8,C  15)     87.2255         0.001500   
    349. D(C  52,H  53,C   8,C   2)    -36.2794         0.001500   
    350. D(C  52,H  53,C   8,O   0)   -156.1287         0.001500   
    351. D(C  15,H  53,O   0,H  32)   -144.7310         0.001502   
    352. D(C  56,O  54,C  50,C  52)    -11.9155         0.017892   
    353. D(C  56,O  54,C  50,H  49)    107.9428         0.017892   
    354. D(C  56,O  54,C  50,H  48)   -130.9545         0.017892   
    355. D(H  20,O  55,C  52,H  53)     -4.1975         0.026239   
    356. D(H  20,O  55,C  52,F  51)   -122.1465         0.026239   
    357. D(H  20,O  55,C  52,C  50)    120.4406         0.026239   
    358. D(C  56,O  55,C  52,H  53)   -138.5754         0.026239   
    359. D(C  56,O  55,C  52,F  51)    103.4756         0.026239   
    360. D(C  56,O  55,C  52,C  50)    -13.9373         0.026239   
    361. D(C  56,O  55,H  20,C   5)    179.2516         0.001500   
    362. D(C  52,O  55,H  20,C   5)     42.1555         0.001500   
    363. D(O  57,C  56,O  55,H  20)     35.3908         0.031841   
    364. D(O  57,C  56,O  55,C  52)   -173.8479         0.031841   
    365. D(O  54,C  56,O  55,H  20)   -143.6928         0.031841   
    366. D(O  54,C  56,O  55,C  52)      7.0685         0.031841   
    367. D(O  57,C  56,O  54,C  50)   -175.2783         0.031071   
    368. D(O  55,C  56,O  54,C  50)      3.7887         0.031071   
    -----------------------------------------------------------------

Number of atoms                         .... 58
Number of degrees of freedom            .... 368


         *************************************************************
         *                GEOMETRY OPTIMIZATION CYCLE   1            *
         *************************************************************
---------------------------------
CARTESIAN COORDINATES (ANGSTROEM)
---------------------------------
  O      1.689256    1.777016    2.347745
  O     -3.627399   -1.640032    2.123742
  C      1.463462    0.214749    0.479417
  C      0.128123   -0.285003    0.906294
  C     -2.263206   -0.525852    0.448149
  C     -0.990965   -0.083386    0.094385
  C      3.282882    0.169727   -1.161674
  C      2.040246   -0.259851   -0.701244
  C      2.166480    1.183322    1.217981
  C     -0.047715   -0.981879    2.104296
  C     -2.403314   -1.216431    1.660262
  C     -3.457732   -0.221470   -0.434305
  C      3.882272   -0.398658   -2.435118
  C      3.962660    1.116410   -0.397076
  C     -1.300361   -1.451886    2.473223
  C      3.414727    1.618570    0.774567
  C     -4.197603   -1.448126   -0.899457
  C      2.984107   -0.277125   -3.634767
  C     -5.497095   -1.673527   -0.724115
  C      2.573416   -1.291324   -4.386598
  H     -0.873121    0.470385   -0.829002
  H      1.492743   -0.999832   -1.273909
  H      0.802839   -1.172478    2.747332
  H     -4.152862    0.444871    0.087475
  H     -3.098802    0.329245   -1.307752
  H      4.143743   -1.451924   -2.289429
  H      4.821367    0.127535   -2.637098
  H      4.936801    1.467303   -0.719314
  H     -1.438032   -2.006898    3.392423
  H      3.942063    2.359270    1.362619
  H     -3.594961   -2.193510   -1.412434
  H      2.656593    0.730453   -3.879403
  H      0.793749    1.477521    2.577713
  H     -4.230072   -1.775318    1.376029
  H     -5.971345   -2.574803   -1.091559
  H     -6.138670   -0.950801   -0.229553
  H      1.928772   -1.137788   -5.243032
  H      2.870447   -2.313030   -4.174170
  H     -5.009585    1.180846    3.301504
  H     -3.899605   -0.508222    4.641531
  O     -2.325927    0.775577    5.013849
  C     -3.735712    0.508504    4.997070
  C     -4.275543    1.543992    4.017153
  C     -2.002878    1.583739    3.989149
  O     -0.903205    1.898488    3.675222
  O     -3.135220    1.983962    3.330832
  F     -4.836016    2.609783    4.684568
  H     -4.137669    0.647980    5.997845
  H      1.269651    5.976931   -0.864900
  H      2.277264    4.500814   -0.988595
  C      1.261354    4.896457   -0.990551
  F     -0.470353    5.136030    0.632594
  C      0.371062    4.216959    0.047537
  H      0.883327    3.674175    0.838157
  O      0.633933    4.570233   -2.237899
  O     -0.399892    3.321895   -0.710633
  C     -0.297001    3.611889   -2.045425
  O     -0.927921    3.077591   -2.895999

----------------------------
CARTESIAN COORDINATES (A.U.)
----------------------------
  NO LB      ZA    FRAG     MASS         X           Y           Z
   0 O     8.0000    0    15.999    3.192231    3.358074    4.436595
   1 O     8.0000    0    15.999   -6.854792   -3.099211    4.013291
   2 C     6.0000    0    12.011    2.765543    0.405816    0.905966
   3 C     6.0000    0    12.011    0.242117   -0.538577    1.712648
   4 C     6.0000    0    12.011   -4.276839   -0.993716    0.846880
   5 C     6.0000    0    12.011   -1.872652   -0.157577    0.178363
   6 C     6.0000    0    12.011    6.203747    0.320737   -2.195245
   7 C     6.0000    0    12.011    3.855507   -0.491047   -1.325160
   8 C     6.0000    0    12.011    4.094054    2.236154    2.301651
   9 C     6.0000    0    12.011   -0.090168   -1.855482    3.976543
  10 C     6.0000    0    12.011   -4.541605   -2.298722    3.137440
  11 C     6.0000    0    12.011   -6.534166   -0.418517   -0.820718
  12 C     6.0000    0    12.011    7.336431   -0.753355   -4.601706
  13 C     6.0000    0    12.011    7.488342    2.109710   -0.750364
  14 C     6.0000    0    12.011   -2.457326   -2.743668    4.673714
  15 C     6.0000    0    12.011    6.452899    3.058653    1.463719
  16 C     6.0000    0    12.011   -7.932319   -2.736561   -1.699727
  17 C     6.0000    0    12.011    5.639145   -0.523690   -6.868714
  18 C     6.0000    0    12.011  -10.388003   -3.162507   -1.368380
  19 C     6.0000    0    12.011    4.863052   -2.440248   -8.289468
  20 H     1.0000    0     1.008   -1.649960    0.888899   -1.566586
  21 H     1.0000    0     1.008    2.820875   -1.889408   -2.407340
  22 H     1.0000    0     1.008    1.517145   -2.215663    5.191705
  23 H     1.0000    0     1.008   -7.847772    0.840685    0.165304
  24 H     1.0000    0     1.008   -5.855887    0.622182   -2.471293
  25 H     1.0000    0     1.008    7.830539   -2.743738   -4.326395
  26 H     1.0000    0     1.008    9.111064    0.241007   -4.983393
  27 H     1.0000    0     1.008    9.329203    2.772801   -1.359306
  28 H     1.0000    0     1.008   -2.717486   -3.792487    6.410751
  29 H     1.0000    0     1.008    7.449419    4.458375    2.574976
  30 H     1.0000    0     1.008   -6.793491   -4.145132   -2.669114
  31 H     1.0000    0     1.008    5.020233    1.380356   -7.331008
  32 H     1.0000    0     1.008    1.499968    2.792110    4.871172
  33 H     1.0000    0     1.008   -7.993678   -3.354864    2.600318
  34 H     1.0000    0     1.008  -11.284207   -4.865673   -2.062747
  35 H     1.0000    0     1.008  -11.600406   -1.796754   -0.433792
  36 H     1.0000    0     1.008    3.644851   -2.150108   -9.907895
  37 H     1.0000    0     1.008    5.424358   -4.370993   -7.888038
  38 H     1.0000    0     1.008   -9.466744    2.231475    6.238938
  39 H     1.0000    0     1.008   -7.369185   -0.960401    8.771222
  40 O     8.0000    0    15.999   -4.395365    1.465628    9.474801
  41 C     6.0000    0    12.011   -7.059472    0.960934    9.443094
  42 C     6.0000    0    12.011   -8.079604    2.917723    7.591320
  43 C     6.0000    0    12.011   -3.784890    2.992833    7.538399
  44 O     8.0000    0    15.999   -1.706809    3.587622    6.945162
  45 O     8.0000    0    15.999   -5.924708    3.749146    6.294359
  46 F     9.0000    0    18.998   -9.138745    4.931776    8.852551
  47 H     1.0000    0     1.008   -7.819061    1.224505   11.334284
  48 H     1.0000    0     1.008    2.399293   11.294762   -1.634424
  49 H     1.0000    0     1.008    4.303406    8.505306   -1.868174
  50 C     6.0000    0    12.011    2.383613    9.252963   -1.871871
  51 F     9.0000    0    18.998   -0.888838    9.705690    1.195429
  52 C     6.0000    0    12.011    0.701206    7.968897    0.089832
  53 H     1.0000    0     1.008    1.669246    6.943184    1.583887
  54 O     8.0000    0    15.999    1.197960    8.636489   -4.229015
  55 O     8.0000    0    15.999   -0.755686    6.277473   -1.342901
  56 C     6.0000    0    12.011   -0.561251    6.825480   -3.865293
  57 O     8.0000    0    15.999   -1.753516    5.815804   -5.472644

--------------------------------
INTERNAL COORDINATES (ANGSTROEM)
--------------------------------
 O      0   0   0     0.000000000000     0.00000000     0.00000000
 O      1   0   0     6.324019414372     0.00000000     0.00000000
 C      1   2   0     2.445876665678    63.26948868     0.00000000
 C      3   1   2     1.488323447747    94.48576309   359.72756870
 C      2   1   3     2.431056290362    45.97352480   320.36439888
 C      5   2   1     1.392667108950   146.44138281    27.81842146
 C      3   1   2     2.450610287431   117.04773189   178.21145211
 C      7   3   1     1.393080775845    28.60716944   182.39062113
 C      1   2   3     1.362564350254    91.69900926   359.28505778
 C      4   3   1     1.397055128240   121.76059832   295.57833557
 C      2   1   3     1.375731776439    25.51445845   357.95587554
 C      5   2   1     1.516003717395    92.92717242   211.83600295
 C      7   3   1     1.517890065520   149.52785844   180.04999128
 C      7   3   1     1.393886098172    88.98358730     2.29483411
 C     10   4   3     1.387853372139   120.69583978   180.77109690
 C     14   7   3     1.387494251316   121.09198467   359.47398211
 C     12   5   2     1.506140797275   113.78567356   299.97989663
 C     13   7   3     1.503538683297   113.78032366    56.19190498
 C     17  12   5     1.330499795995   125.24411863   124.76310533
 C     18  13   7     1.327597839648   125.09217957   237.05517423
 H      6   5   2     1.083140672897   118.57950391   183.89082382
 H      8   7   3     1.084102006583   119.10307691   180.45087168
 H     10   4   3     1.083173211131   119.86877656   359.82997106
 H     12   5   2     1.095203789561   110.17852636    63.15498914
 H     12   5   2     1.093172669122   107.91035859   178.94890028
 H     13   7   3     1.094970524625   110.05154560   293.45960053
 H     13   7   3     1.095251569093   108.26411811   177.57938081
 H     14   7   3     1.084395864646   119.66091244   179.36951571
 H     15  10   4     1.082552901779   120.93882449   178.95165229
 H     16  14   7     1.082832051332   120.91936434   180.44860229
 H     17  12   5     1.087161251222   115.58290982   305.04530464
 H     18  13   7     1.087347544821   115.74347169    56.71901723
 H      1   2   3     0.971862253904    21.12647824   171.54899355
 H      2   1   3     0.969841054927   128.69010908   310.65856343
 H     19  17  12     1.082694598636   121.60887956   179.45114723
 H     19  17  12     1.085607453556   121.63221106     1.13662572
 H     20  18  13     1.082875451598   121.58284371   180.29247636
 H     20  18  13     1.085005162154   121.58787391     0.08054296
 H      2   1   3     3.354833983464    83.08513581   216.46459295
 H     39   2   1     2.425011203101    54.53193871   276.95428560
 O     40  39   2     2.064757308184    90.88393234   110.18970439
 C     40  39   2     1.089496147742    66.37084764   144.13613445
 C     39   2   1     1.087588284630   103.51464220   320.33266256
 C     41  40  39     1.344431704844   114.80025727   324.21842405
 O     44  41  40     1.186127465408   125.73293500   218.22220936
 O     44  41  40     1.369584265687   110.08130134    37.19691118
 F     43  39   2     1.376765413570   107.62038309   187.81625436
 H     42  40  39     1.087461841525   111.37119341   117.66127616
 H     30  16  14     5.019072593807    89.58303443    96.70116693
 H     49  30  16     1.791509177888    30.37687899   311.26087223
 C     49  30  16     1.087786550727    48.65356038   359.63486196
 F     51  49  30     2.385540301436    80.04878244    93.31583586
 C     52  51  49     1.376576218453    36.87579013   195.57329130
 H     53  52  51     1.087248880855   108.19440538   128.18106653
 O     51  49  30     1.433859823873   109.25715303   198.28098429
 O     53  52  51     1.403684002997   108.63722114   246.93225007
 C     55  51  49     1.349854894363   109.83188628   229.04548876
 O     57  55  51     1.186174181529   125.75856357   184.72168489

---------------------------
INTERNAL COORDINATES (A.U.)
---------------------------
 O      0   0   0     0.000000000000     0.00000000     0.00000000
 O      1   0   0    11.950664758765     0.00000000     0.00000000
 C      1   2   0     4.622037055479    63.26948868     0.00000000
 C      3   1   2     2.812523714936    94.48576309   359.72756870
 C      2   1   3     4.594030604930    45.97352480   320.36439888
 C      5   2   1     2.631759431636   146.44138281    27.81842146
 C      3   1   2     4.630982304214   117.04773189   178.21145211
 C      7   3   1     2.632541148777    28.60716944   182.39062113
 C      1   2   3     2.574873461825    91.69900926   359.28505778
 C      4   3   1     2.640051586364   121.76059832   295.57833557
 C      2   1   3     2.599756291203    25.51445845   357.95587554
 C      5   2   1     2.864831843884    92.92717242   211.83600295
 C      7   3   1     2.868396525232   149.52785844   180.04999128
 C      7   3   1     2.634062987425    88.98358730     2.29483411
 C     10   4   3     2.622662787382   120.69583978   180.77109690
 C     14   7   3     2.621984147378   121.09198467   359.47398211
 C     12   5   2     2.846193625976   113.78567356   299.97989663
 C     13   7   3     2.841276343187   113.78032366    56.19190498
 C     17  12   5     2.514280235668   125.24411863   124.76310533
 C     18  13   7     2.508796332920   125.09217957   237.05517423
 H      6   5   2     2.046839236286   118.57950391   183.89082382
 H      8   7   3     2.048655893676   119.10307691   180.45087168
 H     10   4   3     2.046900724637   119.86877656   359.82997106
 H     12   5   2     2.069635223103   110.17852636    63.15498914
 H     12   5   2     2.065796961729   107.91035859   178.94890028
 H     13   7   3     2.069194416258   110.05154560   293.45960053
 H     13   7   3     2.069725513334   108.26411811   177.57938081
 H     14   7   3     2.049211204937   119.66091244   179.36951571
 H     15  10   4     2.045728509845   120.93882449   178.95165229
 H     16  14   7     2.046256026050   120.91936434   180.44860229
 H     17  12   5     2.054437028221   115.58290982   305.04530464
 H     18  13   7     2.054789072104   115.74347169    56.71901723
 H      1   2   3     1.836553499774    21.12647824   171.54899355
 H      2   1   3     1.832733987246   128.69010908   310.65856343
 H     19  17  12     2.045996278099   121.60887956   179.45114723
 H     19  17  12     2.051500776164   121.63221106     1.13662572
 H     20  18  13     2.046338040667   121.58284371   180.29247636
 H     20  18  13     2.050362610362   121.58787391     0.08054296
 H      2   1   3     6.339717453518    83.08513581   216.46459295
 H     39   2   1     4.582607045551    54.53193871   276.95428560
 O     40  39   2     3.901825845481    90.88393234   110.18970439
 C     40  39   2     2.058849343194    66.37084764   144.13613445
 C     39   2   1     2.055244004412   103.51464220   320.33266256
 C     41  40  39     2.540607727916   114.80025727   324.21842405
 O     44  41  40     2.241456069543   125.73293500   218.22220936
 O     44  41  40     2.588139179477   110.08130134    37.19691118
 F     43  39   2     2.601709582302   107.62038309   187.81625436
 H     42  40  39     2.055005061571   111.37119341   117.66127616
 H     30  16  14     9.484672648565    89.58303443    96.70116693
 H     49  30  16     3.385461712615    30.37687899   311.26087223
 C     49  30  16     2.055618673036    48.65356038   359.63486196
 F     51  49  30     4.508017851145    80.04878244    93.31583586
 C     52  51  49     2.601352055346    36.87579013   195.57329130
 H     53  52  51     2.054602624228   108.19440538   128.18106653
 O     51  49  30     2.709602381553   109.25715303   198.28098429
 O     53  52  51     2.652578344231   108.63722114   246.93225007
 C     55  51  49     2.550856070880   109.83188628   229.04548876
 O     57  55  51     2.241544350217   125.75856357   184.72168489

---------------------
BASIS SET INFORMATION
---------------------
There are 4 groups of distinct atoms

 Group   1 Type O   : 11s6p2d1f contracted to 5s3p2d1f pattern {62111/411/11/1}
 Group   2 Type C   : 11s6p2d1f contracted to 5s3p2d1f pattern {62111/411/11/1}
 Group   3 Type H   : 5s1p contracted to 3s1p pattern {311/1}
 Group   4 Type F   : 11s6p2d1f contracted to 5s3p2d1f pattern {62111/411/11/1}

Atom   0O    basis set group =>   1
Atom   1O    basis set group =>   1
Atom   2C    basis set group =>   2
Atom   3C    basis set group =>   2
Atom   4C    basis set group =>   2
Atom   5C    basis set group =>   2
Atom   6C    basis set group =>   2
Atom   7C    basis set group =>   2
Atom   8C    basis set group =>   2
Atom   9C    basis set group =>   2
Atom  10C    basis set group =>   2
Atom  11C    basis set group =>   2
Atom  12C    basis set group =>   2
Atom  13C    basis set group =>   2
Atom  14C    basis set group =>   2
Atom  15C    basis set group =>   2
Atom  16C    basis set group =>   2
Atom  17C    basis set group =>   2
Atom  18C    basis set group =>   2
Atom  19C    basis set group =>   2
Atom  20H    basis set group =>   3
Atom  21H    basis set group =>   3
Atom  22H    basis set group =>   3
Atom  23H    basis set group =>   3
Atom  24H    basis set group =>   3
Atom  25H    basis set group =>   3
Atom  26H    basis set group =>   3
Atom  27H    basis set group =>   3
Atom  28H    basis set group =>   3
Atom  29H    basis set group =>   3
Atom  30H    basis set group =>   3
Atom  31H    basis set group =>   3
Atom  32H    basis set group =>   3
Atom  33H    basis set group =>   3
Atom  34H    basis set group =>   3
Atom  35H    basis set group =>   3
Atom  36H    basis set group =>   3
Atom  37H    basis set group =>   3
Atom  38H    basis set group =>   3
Atom  39H    basis set group =>   3
Atom  40O    basis set group =>   1
Atom  41C    basis set group =>   2
Atom  42C    basis set group =>   2
Atom  43C    basis set group =>   2
Atom  44O    basis set group =>   1
Atom  45O    basis set group =>   1
Atom  46F    basis set group =>   4
Atom  47H    basis set group =>   3
Atom  48H    basis set group =>   3
Atom  49H    basis set group =>   3
Atom  50C    basis set group =>   2
Atom  51F    basis set group =>   4
Atom  52C    basis set group =>   2
Atom  53H    basis set group =>   3
Atom  54O    basis set group =>   1
Atom  55O    basis set group =>   1
Atom  56C    basis set group =>   2
Atom  57O    basis set group =>   1
---------------------------------
AUXILIARY/J BASIS SET INFORMATION
---------------------------------
There are 4 groups of distinct atoms

 Group   1 Type O   : 12s5p4d2f1g contracted to 6s4p3d1f1g pattern {711111/2111/211/2/1}
 Group   2 Type C   : 12s5p4d2f1g contracted to 6s4p3d1f1g pattern {711111/2111/211/2/1}
 Group   3 Type H   : 5s2p1d contracted to 3s1p1d pattern {311/2/1}
 Group   4 Type F   : 12s5p4d2f1g contracted to 6s4p3d1f1g pattern {711111/2111/211/2/1}

Atom   0O    basis set group =>   1
Atom   1O    basis set group =>   1
Atom   2C    basis set group =>   2
Atom   3C    basis set group =>   2
Atom   4C    basis set group =>   2
Atom   5C    basis set group =>   2
Atom   6C    basis set group =>   2
Atom   7C    basis set group =>   2
Atom   8C    basis set group =>   2
Atom   9C    basis set group =>   2
Atom  10C    basis set group =>   2
Atom  11C    basis set group =>   2
Atom  12C    basis set group =>   2
Atom  13C    basis set group =>   2
Atom  14C    basis set group =>   2
Atom  15C    basis set group =>   2
Atom  16C    basis set group =>   2
Atom  17C    basis set group =>   2
Atom  18C    basis set group =>   2
Atom  19C    basis set group =>   2
Atom  20H    basis set group =>   3
Atom  21H    basis set group =>   3
Atom  22H    basis set group =>   3
Atom  23H    basis set group =>   3
Atom  24H    basis set group =>   3
Atom  25H    basis set group =>   3
Atom  26H    basis set group =>   3
Atom  27H    basis set group =>   3
Atom  28H    basis set group =>   3
Atom  29H    basis set group =>   3
Atom  30H    basis set group =>   3
Atom  31H    basis set group =>   3
Atom  32H    basis set group =>   3
Atom  33H    basis set group =>   3
Atom  34H    basis set group =>   3
Atom  35H    basis set group =>   3
Atom  36H    basis set group =>   3
Atom  37H    basis set group =>   3
Atom  38H    basis set group =>   3
Atom  39H    basis set group =>   3
Atom  40O    basis set group =>   1
Atom  41C    basis set group =>   2
Atom  42C    basis set group =>   2
Atom  43C    basis set group =>   2
Atom  44O    basis set group =>   1
Atom  45O    basis set group =>   1
Atom  46F    basis set group =>   4
Atom  47H    basis set group =>   3
Atom  48H    basis set group =>   3
Atom  49H    basis set group =>   3
Atom  50C    basis set group =>   2
Atom  51F    basis set group =>   4
Atom  52C    basis set group =>   2
Atom  53H    basis set group =>   3
Atom  54O    basis set group =>   1
Atom  55O    basis set group =>   1
Atom  56C    basis set group =>   2
Atom  57O    basis set group =>   1


           ************************************************************
           *        Program running with 25 parallel MPI-processes    *
           *              working on a common directory               *
           ************************************************************
------------------------------------------------------------------------------
                             ORCA STARTUP CALCULATIONS
                           -- RI-GTO INTEGRALS CHOSEN --
------------------------------------------------------------------------------
------------------------------------------------------------------------------
                   ___                                                        
                  /   \      - P O W E R E D   B Y -                         
                 /     \                                                     
                 |  |  |   _    _      __       _____    __    __             
                 |  |  |  | |  | |    /  \     |  _  \  |  |  /  |          
                  \  \/   | |  | |   /    \    | | | |  |  | /  /          
                 / \  \   | |__| |  /  /\  \   | |_| |  |  |/  /          
                |  |  |   |  __  | /  /__\  \  |    /   |      \           
                |  |  |   | |  | | |   __   |  |    \   |  |\   \          
                \     /   | |  | | |  |  |  |  | |\  \  |  | \   \       
                 \___/    |_|  |_| |__|  |__|  |_| \__\ |__|  \__/        
                                                                              
                      - O R C A' S   B I G   F R I E N D -                    
                                      &                                       
                       - I N T E G R A L  F E E D E R -                       
                                                                              
 v1 FN, 2020, v2 2021, v3 2022-2024                                           
------------------------------------------------------------------------------


----------------------
SHARK INTEGRAL PACKAGE
----------------------

Number of atoms                             ...     58
Number of basis functions                   ...   1198
Number of shells                            ...    470
Maximum angular momentum                    ...      3
Integral batch strategy                     ... SHARK/LIBINT Hybrid
RI-J (if used) integral strategy            ... SPLIT-RIJ (Revised 2003 algorithm where possible)
Printlevel                                  ...      1
Contraction scheme used                     ... SEGMENTED contraction
Prescreening option                         ... SCHWARTZ
   Thresh                                   ... 2.500e-11
   Tcut                                     ... 2.500e-12
   Tpresel                                  ... 2.500e-12 
Coulomb Range Separation                    ... NOT USED
Exchange Range Separation                   ... NOT USED
Multipole approximations                    ... NOT USED
Finite Nucleus Model                        ... NOT USED
CABS basis                                  ... NOT available
Auxiliary Coulomb fitting basis             ... AVAILABLE
   # of basis functions in Aux-J            ...   1930
   # of shells in Aux-J                     ...    630
   Maximum angular momentum in Aux-J        ...      4
Auxiliary J/K fitting basis                 ... NOT available
Auxiliary Correlation fitting basis         ... NOT available
Auxiliary 'external' fitting basis          ... NOT available

Checking pre-screening integrals            ... done (  0.0 sec) Dimension = 470
Check shell pair data                       ... done (  0.0 sec)
Shell pair information
Shell pair cut-off parameter TPreSel        ...   2.5e-12
Total number of shell pairs                 ...    110685
Shell pairs after pre-screening             ...     64360
Total number of primitive shell pairs       ...    340720
Primitive shell pairs kept                  ...    124134
          la=0 lb=0:  16685 shell pairs
          la=1 lb=0:  19036 shell pairs
          la=1 lb=1:   5459 shell pairs
          la=2 lb=0:   8887 shell pairs
          la=2 lb=1:   5229 shell pairs
          la=2 lb=2:   1226 shell pairs
          la=3 lb=0:   4062 shell pairs
          la=3 lb=1:   2456 shell pairs
          la=3 lb=2:   1066 shell pairs
          la=3 lb=3:    254 shell pairs

Calculating one electron integrals          ... done (  0.1 sec)
Calculating RI/J V-Matrix + Cholesky decomp.... done (  0.2 sec)
Calculating Nuclear repulsion               ... done (  0.0 sec) ENN=   3692.788284136778 Eh

Diagonalization of the overlap matrix:
Smallest eigenvalue                        ... 5.032e-06
Time for diagonalization                   ...    0.241 sec
Threshold for overlap eigenvalues          ... 1.000e-07
Number of eigenvalues below threshold      ... 0
Time for construction of square roots      ...    0.108 sec
Total time needed                          ...    0.360 sec

-------------------
DFT GRID GENERATION
-------------------

General Integration Accuracy     IntAcc      ... 4.388
Radial Grid Type                 RadialGrid  ... OptM3 with GC (2021)
Angular Grid (max. ang.)         AngularGrid ... 4 (Lebedev-302)
Angular grid pruning method      GridPruning ... 4 (adaptive)
Weight generation scheme         WeightScheme... mBecke (2022)
Basis function cutoff            BFCut       ... 1.0000e-11
Integration weight cutoff        WCut        ... 1.0000e-14
Partially contracted basis set               ... off
Rotationally invariant grid construction     ... off
Angular grids for H and He will be reduced by one unit

Total number of grid points                  ...   279690
Total number of batches                      ...     4403
Average number of points per batch           ...       63
Average number of grid points per atom       ...     4822

--------------------
COSX GRID GENERATION
--------------------

GRIDX 1
-------
General Integration Accuracy     IntAcc      ... 3.816
Radial Grid Type                 RadialGrid  ... OptM3 with GC (2021)
Angular Grid (max. ang.)         AngularGrid ... 1 (Lebedev-50)
Angular grid pruning method      GridPruning ... 4 (adaptive)
Weight generation scheme         WeightScheme... mBecke (2022)
Basis function cutoff            BFCut       ... 1.0000e-11
Integration weight cutoff        WCut        ... 1.0000e-14
Partially contracted basis set               ... on
Rotationally invariant grid construction     ... off
Angular grids for H and He will be reduced by one unit

Total number of grid points                  ...    35376
Total number of batches                      ...      314
Average number of points per batch           ...      112
Average number of grid points per atom       ...      610
UseSFitting                                  ... on

GRIDX 2
-------
General Integration Accuracy     IntAcc      ... 4.020
Radial Grid Type                 RadialGrid  ... OptM3 with GC (2021)
Angular Grid (max. ang.)         AngularGrid ... 2 (Lebedev-110)
Angular grid pruning method      GridPruning ... 4 (adaptive)
Weight generation scheme         WeightScheme... mBecke (2022)
Basis function cutoff            BFCut       ... 1.0000e-11
Integration weight cutoff        WCut        ... 1.0000e-14
Partially contracted basis set               ... on
Rotationally invariant grid construction     ... off
Angular grids for H and He will be reduced by one unit

Total number of grid points                  ...    76924
Total number of batches                      ...      633
Average number of points per batch           ...      121
Average number of grid points per atom       ...     1326
UseSFitting                                  ... on

GRIDX 3
-------
General Integration Accuracy     IntAcc      ... 4.338
Radial Grid Type                 RadialGrid  ... OptM3 with GC (2021)
Angular Grid (max. ang.)         AngularGrid ... 3 (Lebedev-194)
Angular grid pruning method      GridPruning ... 4 (adaptive)
Weight generation scheme         WeightScheme... mBecke (2022)
Basis function cutoff            BFCut       ... 1.0000e-11
Integration weight cutoff        WCut        ... 1.0000e-14
Partially contracted basis set               ... on
Rotationally invariant grid construction     ... off
Angular grids for H and He will be reduced by one unit

Total number of grid points                  ...   168006
Total number of batches                      ...     1341
Average number of points per batch           ...      125
Average number of grid points per atom       ...     2897
UseSFitting                                  ... on
Initializing property integral containers    ... done (  0.0 sec)

SHARK setup successfully completed in   4.5 seconds

Maximum memory used throughout the entire STARTUP-calculation: 134.9 MB


           ************************************************************
           *        Program running with 25 parallel MPI-processes    *
           *              working on a common directory               *
           ************************************************************
-------------------------------------------------------------------------------
                                 ORCA GUESS
                   Start orbitals & Density for SCF / CASSCF
-------------------------------------------------------------------------------

------------
SCF SETTINGS
------------
Hamiltonian:
 Density Functional     Method          .... DFT(GTOs)
 Exchange Functional    Exchange        .... B88
   X-Alpha parameter    XAlpha          ....  0.666667
   Becke's b parameter  XBeta           ....  0.004200
 Correlation Functional Correlation     .... LYP
 LDA part of GGA corr.  LDAOpt          .... VWN-5
 Gradients option       PostSCFGGA      .... off
 Hybrid DFT is turned on
   Fraction HF Exchange ScalHFX         ....  0.200000
   Scaling of DF-GGA-X  ScalDFX         ....  0.720000
   Scaling of DF-GGA-C  ScalDFC         ....  0.810000
   Scaling of DF-LDA-C  ScalLDAC        ....  1.000000
   Perturbative correction              ....  0.000000
   NL short-range parameter             ....  4.800000
 RI-approximation to the Coulomb term is turned on
   Number of AuxJ basis functions       .... 1930
   RIJ-COSX (HFX calculated with COS-X)).... on


General Settings:
 Integral files         IntName         .... honokiol2-opt_FEC2
 Hartree-Fock type      HFTyp           .... RHF
 Total Charge           Charge          ....    0
 Multiplicity           Mult            ....    1
 Number of Electrons    NEL             ....  250
 Basis Dimension        Dim             .... 1198
 Nuclear Repulsion      ENuc            ....   3692.7882841368 Eh

Convergence Acceleration:
 AO-DIIS                CNVDIIS         .... on
   Start iteration      DIISMaxIt       ....    12
   Startup error        DIISStart       ....  0.200000
   # of expansion vecs  DIISMaxEq       ....     5
   Bias factor          DIISBfac        ....   1.050
   Max. coefficient     DIISMaxC        ....  10.000
 MO-DIIS                CNVKDIIS        .... off
 Trust-Rad. Augm. Hess. CNVTRAH         .... auto
   Auto Start mean grad. ratio tolernc. ....  1.125000
   Auto Start start iteration           ....    50
   Auto Start num. interpolation iter.  ....    10
   Max. Number of Micro iterations      ....    24
   Max. Number of Macro iterations      .... Maxiter - #DIIS iter
   Number of Davidson start vectors     ....     2
   Converg. threshold    (grad. norm)   ....   1.000e-05
   Grad. Scal. Fac. for Micro threshold ....   0.100
   Minimum threshold for Micro iter.    ....   1.000e-02
   NR start threshold (gradient norm)   ....   1.000e-04
   Initial trust radius                 ....   0.400
   Minimum AH scaling param. (alpha)    ....   1.000
   Maximum AH scaling param. (alpha)    .... 1000.000
   Quad. conv. algorithm                .... NR
   White noise on init. David. guess    .... on
   Maximum white noise                  ....   0.010
   Pseudo random numbers                .... off
   Inactive MOs                         .... canonical
   Orbital update algorithm             .... Taylor
   Preconditioner                       .... Diag
   Full preconditioner red. dimension   ....   250
 SOSCF                  CNVSOSCF        .... on
   Start iteration      SOSCFMaxIt      ....   150
   Startup grad/error   SOSCFStart      ....  0.003300
   Hessian update       SOSCFHessUp     .... L-BFGS
 Level Shifting         CNVShift        .... on
   Level shift para.    LevelShift      ....    0.2500
   Turn off err/grad.   ShiftErr        ....    0.0010
 Zerner damping         CNVZerner       .... off
 Static damping         CNVDamp         .... on
   Fraction old density DampFac         ....    0.7000
   Max. Damping (<1)    DampMax         ....    0.9800
   Min. Damping (>=0)   DampMin         ....    0.0000
   Turn off err/grad.   DampErr         ....    0.1000

SCF Procedure:
 Maximum # iterations   MaxIter         ....   125
 SCF integral mode      SCFMode         .... Direct
   Integral package                     .... SHARK and LIBINT hybrid scheme
 Reset frequency        DirectResetFreq ....    20
 Integral Threshold     Thresh          ....  2.500e-11 Eh
 Primitive CutOff       TCut            ....  2.500e-12 Eh

Convergence Tolerance:
 Convergence Check Mode ConvCheckMode   .... Total+1el-Energy
 Convergence forced     ConvForced      .... 0
 Energy Change          TolE            ....  1.000e-08 Eh
 1-El. energy change                    ....  1.000e-05 Eh
 Orbital Gradient       TolG            ....  1.000e-05
 Orbital Rotation angle TolX            ....  1.000e-05
 DIIS Error             TolErr          ....  5.000e-07

------------------------------
INITIAL GUESS: MODEL POTENTIAL
------------------------------
Loading Hartree-Fock densities                     ... done
Calculating cut-offs                               ... done
Initializing the effective Hamiltonian             ... done
Setting up the integral package (SHARK)            ... done
Starting the Coulomb interaction                   ... done (   0.3 sec)
Making the grid                                    ... done (   0.3 sec)
Mapping shells                                     ... done
Starting the XC term evaluation                    ... done (   0.2 sec)
  promolecular density results
     # of electrons  =    249.999938758
     EX              =   -216.307759398
     EC              =     -8.675186904
     EX+EC           =   -224.982946302
Transforming the Hamiltonian                       ... done (   0.1 sec)
Diagonalizing the Hamiltonian                      ... done (   0.3 sec)
Back transforming the eigenvectors                 ... done (   0.1 sec)
Now organizing SCF variables                       ... done
                      ------------------
                      INITIAL GUESS DONE (   1.3 sec)
[...]
  12 C     6.0000    0    12.011    7.667483   -1.206832   -4.378601
  13 C     6.0000    0    12.011    7.650184    1.924521   -0.738563
  14 C     6.0000    0    12.011   -2.497543   -2.660863    4.465951
  15 C     6.0000    0    12.011    6.506025    3.044055    1.337943
  16 C     6.0000    0    12.011   -7.990548   -2.355770   -1.897510
  17 C     6.0000    0    12.011    6.164364   -0.975802   -6.779060
  18 C     6.0000    0    12.011  -10.459878   -2.701089   -1.571684
  19 C     6.0000    0    12.011    5.374822   -2.901324   -8.180097
  20 H     1.0000    0     1.008   -1.590945    1.028581   -1.726812
  21 H     1.0000    0     1.008    3.025785   -2.141808   -2.359292
  22 H     1.0000    0     1.008    1.488218   -2.238315    4.997970
  23 H     1.0000    0     1.008   -7.775665    1.169395    0.055667
  24 H     1.0000    0     1.008   -5.809052    0.958226   -2.596470
  25 H     1.0000    0     1.008    8.008790   -3.208818   -3.984353
  26 H     1.0000    0     1.008    9.525588   -0.339859   -4.660249
  27 H     1.0000    0     1.008    9.532433    2.522476   -1.285466
  28 H     1.0000    0     1.008   -2.780585   -3.731006    6.186197
  29 H     1.0000    0     1.008    7.459896    4.508247    2.403397
  30 H     1.0000    0     1.008   -6.905076   -3.784382   -2.898591
  31 H     1.0000    0     1.008    5.706985    0.941308   -7.360599
  32 H     1.0000    0     1.008    1.363017    3.097410    4.479339
  33 H     1.0000    0     1.008   -8.062775   -3.039011    2.395368
  34 H     1.0000    0     1.008  -11.417410   -4.355345   -2.301788
  35 H     1.0000    0     1.008  -11.621519   -1.312349   -0.606918
  36 H     1.0000    0     1.008    4.301911   -2.609743   -9.898081
  37 H     1.0000    0     1.008    5.778582   -4.843353   -7.661191
  38 H     1.0000    0     1.008   -9.498968    1.874187    6.717232
  39 H     1.0000    0     1.008   -6.808331   -1.174453    8.828830
  40 O     8.0000    0    15.999   -3.986461    1.497356    9.219968
  41 C     6.0000    0    12.011   -6.574862    0.749862    9.523493
  42 C     6.0000    0    12.011   -8.008355    2.650353    7.899730
  43 C     6.0000    0    12.011   -3.786836    3.120237    7.275715
  44 O     8.0000    0    15.999   -1.867781    3.934652    6.439359
  45 O     8.0000    0    15.999   -6.130202    3.711673    6.361059
  46 F     9.0000    0    18.998   -9.055949    4.523993    9.369671
  47 H     1.0000    0     1.008   -7.091104    0.892273   11.507673
  48 H     1.0000    0     1.008    1.878125   11.334821   -1.989660
  49 H     1.0000    0     1.008    3.636083    8.445683   -2.148746
  50 C     6.0000    0    12.011    1.762994    9.282694   -1.961786
  51 F     9.0000    0    18.998   -0.985767   10.232521    1.489721
  52 C     6.0000    0    12.011    0.371849    8.315650    0.374341
  53 H     1.0000    0     1.008    1.544542    7.426489    1.809027
  54 O     8.0000    0    15.999    0.210371    8.444644   -4.021206
  55 O     8.0000    0    15.999   -1.320696    6.523592   -0.606503
  56 C     6.0000    0    12.011   -1.492861    6.748301   -3.175607
  57 O     8.0000    0    15.999   -2.920444    5.576838   -4.450949

--------------------------------
INTERNAL COORDINATES (ANGSTROEM)
--------------------------------
 O      0   0   0     0.000000000000     0.00000000     0.00000000
 O      1   0   0     6.299421452906     0.00000000     0.00000000
 C      1   2   0     2.444603610896    63.79851289     0.00000000
 C      3   1   2     1.489536790694    94.16498988     0.04388634
 C      2   1   3     2.431841881913    44.73935885   316.74165047
 C      5   2   1     1.393194036717   146.38687885    30.77161223
 C      3   1   2     2.449666838289   117.15164683   179.77959256
 C      7   3   1     1.393800903213    28.62848819   182.08985806
 C      1   2   3     1.362109316136    92.24130169   358.92253475
 C      4   3   1     1.396330322114   121.30083409   290.45671331
 C      2   1   3     1.374952139023    25.54093176   356.84364870
 C      5   2   1     1.515704866408    92.95181780   214.54818386
 C      7   3   1     1.517438221987   149.50172208   180.10095429
 C      7   3   1     1.393838983040    88.97287662     1.87688863
 C     10   4   3     1.387359520731   120.68397076   180.64013729
 C     14   7   3     1.387447351311   121.08913050   359.48404281
 C     12   5   2     1.506049182911   113.84494645   299.96974727
 C     13   7   3     1.503733583859   113.63291201    59.43702267
 C     17  12   5     1.330646511541   125.23343210   125.00542262
 C     18  13   7     1.327582627729   125.15727354   236.98588932
 H      6   5   2     1.083187789753   118.34584201   183.05718278
 H      8   7   3     1.084213276587   119.14180789   180.62052231
 H     10   4   3     1.083121638941   119.80904196   359.74354217
 H     12   5   2     1.095659773660   109.96735601    63.03771794
 H     12   5   2     1.093079227753   107.98636254   178.55640117
 H     13   7   3     1.094753545157   110.12423932   296.72634849
 H     13   7   3     1.095220544132   108.27549299   180.70970524
 H     14   7   3     1.084427721298   119.72817381   179.25511080
 H     15  10   4     1.082496176980   120.75344303   178.61088053
 H     16  14   7     1.083059549087   120.95589245   180.21812794
 H     17  12   5     1.087242741472   115.65789532   305.26455876
 H     18  13   7     1.087416389752   115.63551666    56.61964335
 H      1   2   3     0.970818980985    21.83539233   164.72926078
 H      2   1   3     0.969865321322   126.71713683   302.63962836
 H     19  17  12     1.082744074763   121.62496202   179.38037339
 H     19  17  12     1.085623514120   121.60236475     1.13218862
 H     20  18  13     1.082891753115   121.63342323   180.22971508
 H     20  18  13     1.084976396582   121.57874301     0.04903416
 H      2   1   3     3.256897657686    85.59111305   204.33244261
 H     39   2   1     2.424566242325    57.02740415   282.85221758
 O     40  39   2     2.066808191904    90.87466971   109.47256049
 C     40  39   2     1.089649633012    66.43693932   143.33035854
 C     39   2   1     1.087412126038   104.96201622   327.12010609
 C     41  40  39     1.344330209334   114.65392270   324.30350272
 O     44  41  40     1.188652054611   125.71222092   217.61908363
 O     44  41  40     1.367465763334   110.23304838    37.30270690
 F     43  39   2     1.376746337542   107.76162968   185.73621161
 H     42  40  39     1.087553629796   111.22169321   117.61247842
 H     30  16  14     5.213328109090    89.97306218   102.81460810
 H     49  30  16     1.791625634799    30.17019319   321.50663866
 C     49  30  16     1.087746353711    48.23398060    10.42201128
 F     51  49  30     2.388387245802    80.46703406    93.08326593
 C     52  51  49     1.376022223445    36.76212457   195.70016392
 H     53  52  51     1.087602590665   108.50535156   128.01702096
 O     51  49  30     1.435053601097   109.28625165   198.17702209
 O     53  52  51     1.403889873717   108.87174616   246.83445695
 C     55  51  49     1.348479852701   109.65730361   227.94453569
 O     57  55  51     1.187624939726   125.73697774   185.74521022

---------------------------
INTERNAL COORDINATES (A.U.)
---------------------------
 O      0   0   0     0.000000000000     0.00000000     0.00000000
 O      1   0   0    11.904181348140     0.00000000     0.00000000
 C      1   2   0     4.619631330588    63.79851289     0.00000000
 C      3   1   2     2.814816600811    94.16498988     0.04388634
 C      2   1   3     4.595515157815    44.73935885   316.74165047
 C      5   2   1     2.632755180807   146.38687885    30.77161223
 C      3   1   2     4.629199443715   117.15164683   179.77959256
 C      7   3   1     2.633901992284    28.62848819   182.08985806
 C      1   2   3     2.574013571960    92.24130169   358.92253475
 C      4   3   1     2.638681901286   121.30083409   290.45671331
 C      2   1   3     2.598282990002    25.54093176   356.84364870
 C      5   2   1     2.864267097364    92.95181780   214.54818386
 C      7   3   1     2.867542664701   149.50172208   180.10095429
 C      7   3   1     2.633973952729    88.97287662     1.87688863
 C     10   4   3     2.621729543469   120.68397076   180.64013729
 C     14   7   3     2.621895519212   121.08913050   359.48404281
 C     12   5   2     2.846020499917   113.84494645   299.96974727
 C     13   7   3     2.841644651874   113.63291201    59.43702267
 C     17  12   5     2.514557487871   125.23343210   125.00542262
 C     18  13   7     2.508767586559   125.15727354   236.98588932
 H      6   5   2     2.046928274241   118.34584201   183.05718278
 H      8   7   3     2.048866163511   119.14180789   180.62052231
 H     10   4   3     2.046803267323   119.80904196   359.74354217
 H     12   5   2     2.070496908171   109.96735601    63.03771794
 H     12   5   2     2.065620383131   107.98636254   178.55640117
 H     13   7   3     2.068784384485   110.12423932   296.72634849
 H     13   7   3     2.069666884653   108.27549299   180.70970524
 H     14   7   3     2.049271405285   119.72817381   179.25511080
 H     15  10   4     2.045621315508   120.75344303   178.61088053
 H     16  14   7     2.046685934502   120.95589245   180.21812794
 H     17  12   5     2.054591022476   115.65789532   305.26455876
 H     18  13   7     2.054919170168   115.63551666    56.61964335
 H      1   2   3     1.834581999674    21.83539233   164.72926078
 H      2   1   3     1.832779844086   126.71713683   302.63962836
 H     19  17  12     2.046089774428   121.62496202   179.38037339
 H     19  17  12     2.051531126233   121.60236475     1.13218862
 H     20  18  13     2.046368846069   121.63342323   180.22971508
 H     20  18  13     2.050308251308   121.57874301     0.04903416
 H      2   1   3     6.154644619236    85.59111305   204.33244261
 H     39   2   1     4.581766191544    57.02740415   282.85221758
 O     40  39   2     3.905701454044    90.87466971   109.47256049
 C     40  39   2     2.059139388320    66.43693932   143.33035854
 C     39   2   1     2.054911112916   104.96201622   327.12010609
 C     41  40  39     2.540415929198   114.65392270   324.30350272
 O     44  41  40     2.246226851737   125.71222092   217.61908363
 O     44  41  40     2.584135790215   110.23304838    37.30270690
 F     43  39   2     2.601673533833   107.76162968   185.73621161
 H     42  40  39     2.055178516266   111.22169321   117.61247842
 H     30  16  14     9.851762372454    89.97306218   102.81460810
 H     49  30  16     3.385681784284    30.17019319   321.50663866
 C     49  30  16     2.055542711685    48.23398060    10.42201128
 F     51  49  30     4.513397796316    80.46703406    93.08326593
 C     52  51  49     2.600305156501    36.76212457   195.70016392
 H     53  52  51     2.055271038901   108.50535156   128.01702096
 O     51  49  30     2.711858293571   109.28625165   198.17702209
 O     53  52  51     2.652967383510   108.87174616   246.83445695
 C     55  51  49     2.548257618715   109.65730361   227.94453569
 O     57  55  51     2.244285885897   125.73697774   185.74521022



           ************************************************************
           *        Program running with 25 parallel MPI-processes    *
           *              working on a common directory               *
           ************************************************************
------------------------------------------------------------------------------
                   ___                                                        
                  /   \      - P O W E R E D   B Y -                         
                 /     \                                                     
                 |  |  |   _    _      __       _____    __    __             
                 |  |  |  | |  | |    /  \     |  _  \  |  |  /  |          
                  \  \/   | |  | |   /    \    | | | |  |  | /  /          
                 / \  \   | |__| |  /  /\  \   | |_| |  |  |/  /          
                |  |  |   |  __  | /  /__\  \  |    /   |      \           
                |  |  |   | |  | | |   __   |  |    \   |  |\   \          
                \     /   | |  | | |  |  |  |  | |\  \  |  | \   \       
                 \___/    |_|  |_| |__|  |__|  |_| \__\ |__|  \__/        
                                                                              
                      - O R C A' S   B I G   F R I E N D -                    
                                      &                                       
                       - I N T E G R A L  F E E D E R -                       
                                                                              
 v1 FN, 2020, v2 2021, v3 2022-2024                                           
------------------------------------------------------------------------------


----------------------
SHARK INTEGRAL PACKAGE
----------------------

Number of atoms                             ...     58
Number of basis functions                   ...   1198
Number of shells                            ...    470
Maximum angular momentum                    ...      3
Integral batch strategy                     ... SHARK/LIBINT Hybrid
RI-J (if used) integral strategy            ... SPLIT-RIJ (Revised 2003 algorithm where possible)
Printlevel                                  ...      1
Contraction scheme used                     ... SEGMENTED contraction
Prescreening option                         ... SCHWARTZ
   Thresh                                   ... 2.500e-11
   Tcut                                     ... 2.500e-12
   Tpresel                                  ... 2.500e-12 
Coulomb Range Separation                    ... NOT USED
Exchange Range Separation                   ... NOT USED
Multipole approximations                    ... NOT USED
Finite Nucleus Model                        ... NOT USED
CABS basis                                  ... NOT available
Auxiliary Coulomb fitting basis             ... AVAILABLE
   # of basis functions in Aux-J            ...   1930
   # of shells in Aux-J                     ...    630
   Maximum angular momentum in Aux-J        ...      4
Auxiliary J/K fitting basis                 ... NOT available
Auxiliary Correlation fitting basis         ... NOT available
Auxiliary 'external' fitting basis          ... NOT available

Checking pre-screening integrals            ... done (  0.0 sec) Dimension = 470
Check shell pair data                       ... done (  0.0 sec)
Shell pair information
Shell pair cut-off parameter TPreSel        ...   2.5e-12
Total number of shell pairs                 ...    110685
Shell pairs after pre-screening             ...     64385
Total number of primitive shell pairs       ...    340720
Primitive shell pairs kept                  ...    124272
          la=0 lb=0:  16695 shell pairs
          la=1 lb=0:  19052 shell pairs
          la=1 lb=1:   5452 shell pairs
          la=2 lb=0:   8874 shell pairs
          la=2 lb=1:   5220 shell pairs
          la=2 lb=2:   1235 shell pairs
          la=3 lb=0:   4068 shell pairs
          la=3 lb=1:   2474 shell pairs
          la=3 lb=2:   1064 shell pairs
          la=3 lb=3:    251 shell pairs

Calculating one electron integrals          ... done (  0.1 sec)
Calculating RI/J V-Matrix + Cholesky decomp.... done (  0.2 sec)
Calculating Nuclear repulsion               ... done (  0.0 sec) ENN=   3701.385506968079 Eh

Diagonalization of the overlap matrix:
Smallest eigenvalue                        ... 5.059e-06
Time for diagonalization                   ...    0.242 sec
Threshold for overlap eigenvalues          ... 1.000e-07
Number of eigenvalues below threshold      ... 0
Time for construction of square roots      ...    0.110 sec
Total time needed                          ...    0.363 sec

-------------------
DFT GRID GENERATION
-------------------

General Integration Accuracy     IntAcc      ... 4.388
Radial Grid Type                 RadialGrid  ... OptM3 with GC (2021)
Angular Grid (max. ang.)         AngularGrid ... 4 (Lebedev-302)
Angular grid pruning method      GridPruning ... 4 (adaptive)
Weight generation scheme         WeightScheme... mBecke (2022)
Basis function cutoff            BFCut       ... 1.0000e-11
Integration weight cutoff        WCut        ... 1.0000e-14
Partially contracted basis set               ... off
Rotationally invariant grid construction     ... off
Angular grids for H and He will be reduced by one unit

Total number of grid points                  ...   279692
Total number of batches                      ...     4401
Average number of points per batch           ...       63
Average number of grid points per atom       ...     4822

--------------------
COSX GRID GENERATION
--------------------

GRIDX 1
-------
General Integration Accuracy     IntAcc      ... 3.816
Radial Grid Type                 RadialGrid  ... OptM3 with GC (2021)
Angular Grid (max. ang.)         AngularGrid ... 1 (Lebedev-50)
Angular grid pruning method      GridPruning ... 4 (adaptive)
Weight generation scheme         WeightScheme... mBecke (2022)
Basis function cutoff            BFCut       ... 1.0000e-11
Integration weight cutoff        WCut        ... 1.0000e-14
Partially contracted basis set               ... on
Rotationally invariant grid construction     ... off
Angular grids for H and He will be reduced by one unit

Total number of grid points                  ...    35382
Total number of batches                      ...      312
Average number of points per batch           ...      113
Average number of grid points per atom       ...      610
UseSFitting                                  ... on

GRIDX 2
-------
General Integration Accuracy     IntAcc      ... 4.020
Radial Grid Type                 RadialGrid  ... OptM3 with GC (2021)
Angular Grid (max. ang.)         AngularGrid ... 2 (Lebedev-110)
Angular grid pruning method      GridPruning ... 4 (adaptive)
Weight generation scheme         WeightScheme... mBecke (2022)
Basis function cutoff            BFCut       ... 1.0000e-11
Integration weight cutoff        WCut        ... 1.0000e-14
Partially contracted basis set               ... on
Rotationally invariant grid construction     ... off
Angular grids for H and He will be reduced by one unit

Total number of grid points                  ...    76914
Total number of batches                      ...      632
Average number of points per batch           ...      121
Average number of grid points per atom       ...     1326
UseSFitting                                  ... on

GRIDX 3
-------
General Integration Accuracy     IntAcc      ... 4.338
Radial Grid Type                 RadialGrid  ... OptM3 with GC (2021)
Angular Grid (max. ang.)         AngularGrid ... 3 (Lebedev-194)
Angular grid pruning method      GridPruning ... 4 (adaptive)
Weight generation scheme         WeightScheme... mBecke (2022)
Basis function cutoff            BFCut       ... 1.0000e-11
Integration weight cutoff        WCut        ... 1.0000e-14
Partially contracted basis set               ... on
Rotationally invariant grid construction     ... off
Angular grids for H and He will be reduced by one unit

Total number of grid points                  ...   168069
Total number of batches                      ...     1339
Average number of points per batch           ...      125
Average number of grid points per atom       ...     2898
UseSFitting                                  ... on
Initializing property integral containers    ... done (  0.0 sec)

SHARK setup successfully completed in   4.4 seconds

Maximum memory used throughout the entire STARTUP-calculation: 145.7 MB

ORCA finished by error termination in GUESS
Calling Command: mpirun -np 25  /home/yongsang/orca_6_0_1_linux_x86-64_shared_openmpi416/orca_guess_mpi honokiol2-opt_FEC2.gbw honokiol2-opt_FEC2 
[file orca_tools/qcmsg.cpp, line 394]: 
  .... aborting the run

