[Molden Format]
[Title]
 Molden file created by orca_2mkl for BaseName=EC

[Atoms] AU
O    1   8          0.0164400097         2.1052772104         0.0188320827 
O    2   8          0.0159894519        -2.1053740633        -0.0186996459 
O    3   8          3.7287837509        -0.0004444430        -0.0005434979 
C    4   6         -2.5833126106         1.4082459343         0.3296337568 
C    5   6         -2.5837781066        -1.4077443771        -0.3285706590 
C    6   6          1.4857435092        -0.0002148426        -0.0002250054 
H    7   1         -3.7308623222         2.5510403254        -0.9374080474 
H    8   1         -3.1378728388         1.7699537527         2.2837162046 
H    9   1         -3.7310499680        -2.5502716285         0.9389493554 
H   10   1         -3.1390213713        -1.7693340326        -2.2824720094 
[GTO]
  1 0
s   6 1.0 
    27032.3826310000         0.8598581479
     4052.3871392000         1.6055305368
      922.3272271000         2.7458778516
      261.2407098900         4.2987674426
       85.3546413510         5.8797663284
       31.0350352450         6.3163983216
s   2 1.0 
       12.2608607280         2.9812147522
        4.9987076005         0.9419559635
s   1 1.0 
        1.1703108158         0.8019291610
s   1 1.0 
        0.4647474099         0.4011648062
s   1 1.0 
        0.1850453636         0.2010799406
p   4 1.0 
       63.2749548010         3.0572017144
       14.6270493790         3.3844839414
        4.4501223456         2.9474262132
        1.5275799647         1.7118271494
p   1 1.0 
        0.5293511794         0.6436057926
p   1 1.0 
        0.1747842127         0.1610897254
d   1 1.0 
        2.3140000000        12.3767310624
d   1 1.0 
        0.6450000000         1.3234257612
f   1 1.0 
        1.4280000000        12.7097950062

  2 0
s   6 1.0 
    27032.3826310000         0.8598581479
     4052.3871392000         1.6055305368
      922.3272271000         2.7458778516
      261.2407098900         4.2987674426
       85.3546413510         5.8797663284
       31.0350352450         6.3163983216
s   2 1.0 
       12.2608607280         2.9812147522
        4.9987076005         0.9419559635
s   1 1.0 
        1.1703108158         0.8019291610
s   1 1.0 
        0.4647474099         0.4011648062
s   1 1.0 
        0.1850453636         0.2010799406
p   4 1.0 
       63.2749548010         3.0572017144
       14.6270493790         3.3844839414
        4.4501223456         2.9474262132
        1.5275799647         1.7118271494
p   1 1.0 
        0.5293511794         0.6436057926
p   1 1.0 
        0.1747842127         0.1610897254
d   1 1.0 
        2.3140000000        12.3767310624
d   1 1.0 
        0.6450000000         1.3234257612
f   1 1.0 
        1.4280000000        12.7097950062

  3 0
s   6 1.0 
    27032.3826310000         0.8598581479
     4052.3871392000         1.6055305368
      922.3272271000         2.7458778516
      261.2407098900         4.2987674426
       85.3546413510         5.8797663284
       31.0350352450         6.3163983216
s   2 1.0 
       12.2608607280         2.9812147522
        4.9987076005         0.9419559635
s   1 1.0 
        1.1703108158         0.8019291610
s   1 1.0 
        0.4647474099         0.4011648062
s   1 1.0 
        0.1850453636         0.2010799406
p   4 1.0 
       63.2749548010         3.0572017144
       14.6270493790         3.3844839414
        4.4501223456         2.9474262132
        1.5275799647         1.7118271494
p   1 1.0 
        0.5293511794         0.6436057926
p   1 1.0 
        0.1747842127         0.1610897254
d   1 1.0 
        2.3140000000        12.3767310624
d   1 1.0 
        0.6450000000         1.3234257612
f   1 1.0 
        1.4280000000        12.7097950062

  4 0
s   6 1.0 
    13575.3496820000         0.5435905310
     2035.2333680000         1.0145543947
      463.2256235900         1.7315731970
      131.2001959800         2.6910376290
       42.8530158910         3.6044547126
       15.5841857660         3.7025556986
s   2 1.0 
        6.2067138508         1.8383540830
        2.5764896527         0.5447575605
s   1 1.0 
        0.5769633942         0.4718145038
s   1 1.0 
        0.2297283136         0.2364944676
s   1 1.0 
        0.0951644400         0.1221141848
p   4 1.0 
       34.6972322440         1.3596651507
        7.9582622826         1.4512589486
        2.3780826883         1.2709231419
        0.8143320818         0.8025721189
p   1 1.0 
        0.2888754725         0.3018758868
p   1 1.0 
        0.1005682367         0.0807265016
d   1 1.0 
        1.0970000000         3.3522135855
d   1 1.0 
        0.3180000000         0.3838994974
f   1 1.0 
        0.7610000000         3.0840084332

  5 0
s   6 1.0 
    13575.3496820000         0.5435905310
     2035.2333680000         1.0145543947
      463.2256235900         1.7315731970
      131.2001959800         2.6910376290
       42.8530158910         3.6044547126
       15.5841857660         3.7025556986
s   2 1.0 
        6.2067138508         1.8383540830
        2.5764896527         0.5447575605
s   1 1.0 
        0.5769633942         0.4718145038
s   1 1.0 
        0.2297283136         0.2364944676
s   1 1.0 
        0.0951644400         0.1221141848
p   4 1.0 
       34.6972322440         1.3596651507
        7.9582622826         1.4512589486
        2.3780826883         1.2709231419
        0.8143320818         0.8025721189
p   1 1.0 
        0.2888754725         0.3018758868
p   1 1.0 
        0.1005682367         0.0807265016
d   1 1.0 
        1.0970000000         3.3522135855
d   1 1.0 
        0.3180000000         0.3838994974
f   1 1.0 
        0.7610000000         3.0840084332

  6 0
s   6 1.0 
    13575.3496820000         0.5435905310
     2035.2333680000         1.0145543947
      463.2256235900         1.7315731970
      131.2001959800         2.6910376290
       42.8530158910         3.6044547126
       15.5841857660         3.7025556986
s   2 1.0 
        6.2067138508         1.8383540830
        2.5764896527         0.5447575605
s   1 1.0 
        0.5769633942         0.4718145038
s   1 1.0 
        0.2297283136         0.2364944676
s   1 1.0 
        0.0951644400         0.1221141848
p   4 1.0 
       34.6972322440         1.3596651507
        7.9582622826         1.4512589486
        2.3780826883         1.2709231419
        0.8143320818         0.8025721189
p   1 1.0 
        0.2888754725         0.3018758868
p   1 1.0 
        0.1005682367         0.0807265016
d   1 1.0 
        1.0970000000         3.3522135855
d   1 1.0 
        0.3180000000         0.3838994974
f   1 1.0 
        0.7610000000         3.0840084332

  7 0
s   3 1.0 
       34.0613410000         0.2556299169
        5.1235746000         0.4613599649
        1.1646626000         0.6811214941
s   1 1.0 
        0.3272304100         0.3083545312
s   1 1.0 
        0.1030724100         0.1296483265
p   1 1.0 
        0.8000000000         1.0784563492

  8 0
s   3 1.0 
       34.0613410000         0.2556299169
        5.1235746000         0.4613599649
        1.1646626000         0.6811214941
s   1 1.0 
        0.3272304100         0.3083545312
s   1 1.0 
        0.1030724100         0.1296483265
p   1 1.0 
        0.8000000000         1.0784563492

  9 0
s   3 1.0 
       34.0613410000         0.2556299169
        5.1235746000         0.4613599649
        1.1646626000         0.6811214941
s   1 1.0 
        0.3272304100         0.3083545312
s   1 1.0 
        0.1030724100         0.1296483265
p   1 1.0 
        0.8000000000         1.0784563492

 10 0
s   3 1.0 
       34.0613410000         0.2556299169
        5.1235746000         0.4613599649
        1.1646626000         0.6811214941
s   1 1.0 
        0.3272304100         0.3083545312
s   1 1.0 
        0.1030724100         0.1296483265
p   1 1.0 
        0.8000000000         1.0784563492

[5D]
[7F]
[9G]
[MO]
 Sym=     1a
 Ene= -1.91893071038096E+01
 Spin= Alpha
 Occup= 2.000000
  1       0.300768376212
  2       0.441936032790
  3       0.026491253829
  4      -0.024267698947
  5       0.004859989583
  6      -0.000537080320
  7      -0.001464266231
  8       0.000128093740
  9       0.001458042040
 10       0.004644755706
 11      -0.000395323695
 12       0.000487221559
 13       0.000680407006
 14      -0.000068664859
 15      -0.000157373753
 16      -0.000054187365
 17      -0.000014752715
 18       0.000099305597
 19      -0.000066436255
 20       0.001133267629
 21       0.000317258912
 22       0.000067726326
 23      -0.000610220052
 24       0.000340298387
 25       0.000039530363
 26      -0.000077072621
 27      -0.000067255222
 28      -0.000037946374
 29      -0.000038887654
 30      -0.000244457993
 31      -0.000214958851
 32      -0.314432622309
 33      -0.462017316762
 34      -0.027651474605
 35       0.025177726189
 36      -0.005064489854
 37       0.000558441103
 38      -0.001530337231
 39       0.000131440594
 40      -0.001502347765
 41       0.004804903857
 42      -0.000401526071
 43      -0.000445803189
 44       0.000690593806
 45      -0.000072475586
 46       0.000167485887
 47      -0.000054951200
 48       0.000014475138
 49      -0.000102259452
 50      -0.000070138519
 51      -0.001186198868
 52       0.000321690094
 53      -0.000067030513
 54       0.000627450045
 55       0.000358027046
 56       0.000040162314
 57       0.000078495067
 58      -0.000073784690
 59      -0.000039171151
 60       0.000038979960
 61       0.000251919696
 62      -0.000218681857
 63       0.000000463312
 64       0.000000686187
 65       0.000005383825
 66      -0.000058656517
 67       0.000009361917
 68       0.000001734856
 69      -0.000020061548
 70      -0.000007318955
 71       0.000017945717
 72       0.000447774442
 73       0.000043429815
 74       0.000002690197
 75       0.000950899589
 76      -0.000209641977
 77       0.000002935090
 78      -0.000012590824
 79      -0.000000032086
 80       0.000000141740
 81       0.000024554167
 82      -0.000008348673
 83       0.000018386656
 84       0.000000174893
 85      -0.000004000751
 86      -0.000176457590
 87      -0.000010587824
 88       0.000001637835
 89       0.000039731123
 90       0.000012214961
 91      -0.000000040206
 92      -0.000000712960
 93       0.000037774266
 94       0.000006696105
 95      -0.000031297189
 96      -0.002417728486
 97       0.008452246108
 98      -0.012299545988
 99      -0.000443892689
100       0.000102985239
101       0.000076013209
102       0.005959411432
103      -0.000476448953
104      -0.001167611160
105      -0.000331599158
106       0.002019107403
107       0.000263152223
108      -0.000138581924
109      -0.000062173275
110      -0.000007610725
111       0.000193257898
112       0.000250133131
113      -0.002430549964
114      -0.000643100237
115       0.000191507225
116       0.001969984382
117       0.000151351509
118       0.000145327160
119      -0.000449493914
120      -0.000020714396
121      -0.000138335758
122      -0.000030340692
123      -0.000250412353
124      -0.000326416897
125      -0.000007599162
126       0.000035884458
127       0.002453137965
128      -0.008626538096
129       0.012479669518
130       0.000442690213
131       0.000101064537
132       0.000076978061
133      -0.006082352917
134      -0.000441640063
135      -0.001184472050
136       0.000338307804
137       0.001982777314
138       0.000285242143
139       0.000146561765
140      -0.000062607254
141       0.000009845975
142      -0.000206069571
143       0.000256967466
144       0.002454961561
145      -0.000674137013
146      -0.000202734595
147      -0.002028598487
148       0.000193842524
149       0.000149978139
150       0.000462022732
151      -0.000027526349
152      -0.000141237050
153       0.000032676140
154       0.000264918187
155      -0.000337930309
156      -0.000001011592
157       0.000005661286
158       0.000023836931
159      -0.000157838984
160       0.000038894923
161       0.000001077143
162       0.000049902800
163       0.000039572687
164       0.000138202492
165       0.007866980465
166      -0.000052282957
167      -0.000031773344
168      -0.002464535515
169       0.000389456858
170       0.000010056776
171      -0.000040377562
172       0.000000193865
173       0.000004486869
174      -0.000598079640
175       0.000032004007
176       0.000115640541
177      -0.000000410941
178       0.000049785123
179      -0.005306245244
180       0.000040058569
181      -0.000011188099
182      -0.000718101593
183      -0.000037904633
184      -0.000000174371
185       0.000003453731
186      -0.000116103531
187       0.000006412136
188       0.000775429232
189       0.001349428547
190       0.000081136091
191      -0.000098505676
192      -0.000125348833
193       0.000072078755
194       0.001388028756
195       0.001497866936
196       0.000056407580
197      -0.000104945863
198      -0.000051392737
199      -0.000007746807
200      -0.000803259226
201      -0.001407249582
202      -0.000076092086
203      -0.000099823498
204      -0.000124091151
205      -0.000069772550
206      -0.001385580546
207      -0.001542574295
208      -0.000055678780
209      -0.000108513950
210      -0.000047278970
 Sym=     1a
 Ene= -1.91892895796057E+01
 Spin= Alpha
 Occup= 2.000000
  1      -0.314424798070
  2      -0.462083828180
  3      -0.026721245041
  4       0.021042428686
  5      -0.004694702594
  6       0.000501818527
  7       0.001517897912
  8      -0.000081375733
  9      -0.001061449554
 10      -0.003703499860
 11       0.000158540594
 12       0.000914762993
 13      -0.000246625314
 14       0.000092434474
 15       0.000231205145
 16       0.000021344750
 17      -0.000006881450
 18      -0.000067759468
 19       0.000085579088
 20      -0.001214491197
 21      -0.000129839048
 22       0.000019887663
 23       0.000397854520
 24      -0.000412204498
 25      -0.000016575731
 26       0.000033001392
 27       0.000147632946
 28       0.000032447714
 29       0.000005818717
 30       0.000176497955
 31       0.000084753308
 32      -0.300760199591
 33      -0.442005580824
 34      -0.025518605353
 35       0.019944009488
 36      -0.004474446560
 37       0.000477153608
 38      -0.001451507929
 39       0.000075454860
 40      -0.000994787798
 41       0.003493865142
 42      -0.000140485831
 43       0.000935552807
 44       0.000215970014
 45      -0.000089690498
 46       0.000224027298
 47      -0.000018727726
 48      -0.000007487605
 49      -0.000063317979
 50      -0.000082501948
 51      -0.001163054080
 52       0.000114727232
 53       0.000022698073
 54       0.000370551436
 55       0.000396514516
 56       0.000014780923
 57       0.000029547077
 58      -0.000144510827
 59      -0.000030640453
 60       0.000003979952
 61       0.000165431783
 62      -0.000075239184
 63       0.000020860236
 64       0.000030849593
 65       0.000242834206
 66      -0.002643325095
 67       0.000423444376
 68       0.000077989839
 69       0.000000422313
 70       0.000000146442
 71       0.000806258441
 72      -0.000009993838
 73      -0.000001056333
 74       0.000116755052
 75      -0.000021128729
 76       0.000004587211
 77       0.000132565401
 78       0.000000315606
 79      -0.000002074807
 80       0.000006169926
 81      -0.000000548186
 82      -0.000375914686
 83      -0.000000489450
 84       0.000008829123
 85      -0.000178591178
 86       0.000003941272
 87       0.000000203607
 88       0.000073713771
 89      -0.000000890414
 90      -0.000000255331
 91      -0.000002602269
 92      -0.000032515526
 93      -0.000000831925
 94      -0.000020572164
 95       0.000104603425
 96       0.000851661365
 97      -0.004128865404
 98       0.004328343282
 99      -0.000019722416
100       0.000038683207
101      -0.000026992396
102      -0.002907214390
103      -0.000743746853
104       0.000456175709
105       0.000140147744
106       0.000772139572
107      -0.000506388768
108       0.000183022023
109       0.000015611893
110       0.000052210194
111      -0.000295935156
112      -0.000158410695
113       0.000595506113
114       0.000765048005
115      -0.000261357180
116      -0.001366071119
117      -0.000945345950
118      -0.000117152614
119       0.000287898530
120       0.000151386154
121       0.000077579297
122       0.000056429560
123       0.000336035108
124       0.000262347906
125      -0.000020251608
126       0.000103088994
127       0.000743689117
128      -0.003749914666
129       0.003778648120
130      -0.000039354591
131      -0.000043209679
132       0.000023614157
133      -0.002639509773
134       0.000764399991
135      -0.000402799185
136       0.000125422830
137      -0.000860899055
138       0.000494238400
139       0.000176679629
140      -0.000012620545
141       0.000051759389
142      -0.000286973020
143       0.000147292370
144       0.000487398379
145      -0.000735037136
146      -0.000252872820
147      -0.001276972107
148       0.000938183383
149       0.000110374295
150       0.000267794868
151      -0.000150385527
152      -0.000071047734
153       0.000054886335
154       0.000324479563
155      -0.000247876127
156      -0.000045487333
157       0.000254579507
158       0.001074344702
159      -0.007105152832
160       0.001745774768
161       0.000047404854
162      -0.000001091932
163      -0.000000896910
164       0.006182017523
165      -0.000175363888
166       0.000000023347
167      -0.001418728215
168       0.000054884870
169      -0.000008341481
170       0.000452019876
171       0.000001002426
172       0.000002928817
173       0.000207809897
174       0.000013235140
175       0.001440569388
176      -0.000002415013
177      -0.000063388391
178       0.002293218678
179       0.000117330301
180      -0.000000654330
181      -0.000501624770
182       0.000016012839
183       0.000000759848
184       0.000003064853
185       0.000157267754
186       0.000002534292
187      -0.000030204391
188      -0.000650067482
189      -0.001332319590
190       0.000111607614
191       0.000032161457
192      -0.000026901149
193       0.000051296585
194       0.000023788333
195      -0.001039751965
196       0.000015350012
197       0.000083072240
198      -0.000091077954
199      -0.000029880095
200      -0.000615098437
201      -0.001271149417
202       0.000115079487
203      -0.000027766353
204       0.000032458107
205       0.000054491374
206       0.000085563710
207      -0.000972299535
208       0.000017867850
209      -0.000078331577
210       0.000093319645
 Sym=     1a
 Ene= -1.91154508574226E+01
 Spin= Alpha
 Occup= 2.000000
  1       0.000014629341
  2       0.000028997617
  3      -0.000338764051
  4       0.001916169857
  5      -0.000226861017
  6      -0.000030140565
  7      -0.000008525446
  8      -0.000003081376
  9       0.000763324116
 10      -0.000559684872
 11       0.000017979163
 12       0.000639386171
 13       0.000090636666
 14       0.000230715383
 15      -0.000079215341
 16       0.000008054871
 17       0.000010962397
 18      -0.000022053232
 19       0.000005301831
 20       0.000125720546
 21      -0.000042288032
 22      -0.000048893944
 23       0.000199797679
 24      -0.000312940483
 25      -0.000007439639
 26       0.000047197008
 27      -0.000060243548
 28       0.000000973009
 29       0.000002450134
 30       0.000066726050
 31       0.000060852710
 32       0.000014629113
 33       0.000029000259
 34      -0.000338795128
 35       0.001916204475
 36      -0.000226566714
 37      -0.000030123721
 38       0.000008531348
 39       0.000003089519
 40       0.000763361318
 41       0.000559525683
 42      -0.000018245475
 43       0.000639088050
 44      -0.000090779758
 45      -0.000230882374
 46      -0.000079282666
 47      -0.000008144978
 48       0.000010876629
 49      -0.000022120407
 50      -0.000005330930
 51       0.000125718312
 52       0.000042279380
 53      -0.000048897628
 54       0.000200068183
 55       0.000312818437
 56       0.000007392009
 57       0.000047226967
 58       0.000060234472
 59      -0.000000944135
 60       0.000002454342
 61       0.000066683758
 62      -0.000060916740
 63       0.435075820081
 64       0.639486281007
 65       0.036774852164
 66      -0.032407385805
 67       0.010731115597
 68      -0.002423339468
 69       0.000000248132
 70       0.000000328016
 71       0.007230223356
 72      -0.000000733141
 73      -0.000001009086
 74       0.000004452667
 75       0.000000013762
 76      -0.000000020108
 77      -0.000128436105
 78      -0.000000078001
 79      -0.000003006707
 80       0.000344050595
 81      -0.000000071720
 82       0.000700767728
 83       0.000000385219
 84       0.000007946084
 85      -0.001523932067
 86       0.000000305344
 87       0.000000037913
 88      -0.000111024608
 89       0.000000010667
 90      -0.000000047618
 91       0.000000147555
 92      -0.000120413825
 93       0.000000033060
 94       0.000005571533
 95      -0.000028767702
 96       0.000341623357
 97      -0.000376677328
 98      -0.001505861917
 99       0.000143766657
100      -0.000031848779
101      -0.000008464209
102      -0.000482862550
103       0.000139445115
104      -0.000040052353
105      -0.000922100341
106       0.000536901767
107      -0.000544889767
108      -0.000014706625
109      -0.000009097727
110       0.000007544385
111       0.000047222709
112      -0.000060650527
113       0.000118025361
114       0.000003141157
115      -0.000072766933
116      -0.000329240358
117       0.000212129424
118      -0.000010475087
119       0.000058610708
120      -0.000007652320
121      -0.000004557190
122       0.000004028916
123       0.000033518977
124      -0.000022114015
125       0.000005571533
126      -0.000028768630
127       0.000341876719
128      -0.000377605740
129      -0.001506922708
130       0.000143786181
131       0.000031864753
132       0.000008442972
133      -0.000482970231
134      -0.000139492370
135       0.000040120815
136      -0.000922370170
137      -0.000537063611
138       0.000545408223
139      -0.000014721033
140       0.000009049271
141       0.000007513686
142       0.000047261105
143       0.000060641058
144       0.000118036310
145      -0.000002910245
146      -0.000072682742
147      -0.000329336219
148      -0.000212069041
149       0.000010477574
150       0.000058686212
151       0.000007664899
152       0.000004586960
153       0.000004024862
154       0.000033549623
155       0.000022058109
156       0.000034119092
157      -0.000219560721
158       0.000931757783
159       0.005008885191
160      -0.000393771781
161       0.000838252801
162      -0.000000088460
163      -0.000000108947
164       0.010303116402
165      -0.000001064309
166      -0.000001575044
167      -0.006994445709
168       0.000000637108
169       0.000001024918
170      -0.000117020117
171      -0.000000045974
172       0.000009853701
173       0.000196051720
174      -0.000000033467
175      -0.001812995563
176      -0.000001243272
177      -0.000092202618
178       0.005771302558
179      -0.000001199521
180       0.000000130430
181      -0.000281299773
182       0.000000027021
183       0.000000041629
184       0.000019940046
185       0.000379996282
186      -0.000000099155
187      -0.000013534020
188       0.000060209919
189      -0.000414378095
190      -0.000021892169
191      -0.000023818814
192      -0.000004696937
193      -0.000014217658
194       0.000224721376
195       0.000229654818
196       0.000000892169
197      -0.000001943895
198      -0.000023198166
199      -0.000013505431
200       0.000060439374
201      -0.000414609998
202      -0.000021854357
203       0.000023880606
204       0.000004673393
205      -0.000014217787
206       0.000224996621
207       0.000229793216
208       0.000000947171
209       0.000001978925
210       0.000023262422
 Sym=     1a
 Ene= -1.03473921322145E+01
 Spin= Alpha
 Occup= 2.000000
  1      -0.000021736040
  2      -0.000173895526
  3       0.001907432782
  4      -0.004380661303
  5       0.004999041114
  6       0.000426704918
  7      -0.000426527797
  8       0.000000952906
  9      -0.002219262811
 10       0.002397660332
 11      -0.000019747110
 12      -0.000521137916
 13      -0.002648152063
 14       0.000637729778
 15      -0.000024948884
 16       0.000022732744
 17       0.000011318440
 18      -0.000079223758
 19      -0.000207535029
 20       0.000880863976
 21      -0.000056287378
 22      -0.000064910481
 23       0.000670032236
 24       0.002212771911
 25      -0.000010507349
 26       0.000305041110
 27      -0.000350868420
 28       0.000005735009
 29      -0.000024881687
 30      -0.000625916860
 31      -0.000224213578
 32      -0.000021738361
 33      -0.000173901606
 34       0.001907530481
 35      -0.004381060148
 36       0.004998618530
 37       0.000426814329
 38       0.000426451053
 39      -0.000001114227
 40      -0.002220018469
 41      -0.002397457277
 42       0.000020592513
 43      -0.000520803946
 44       0.002648067551
 45      -0.000637562196
 46      -0.000024931007
 47      -0.000022720356
 48       0.000011246358
 49      -0.000079142983
 50       0.000207571024
 51       0.000880878669
 52       0.000056632653
 53      -0.000064074225
 54       0.000669127068
 55      -0.002213202468
 56       0.000010220307
 57       0.000305135602
 58       0.000350819739
 59      -0.000005853575
 60      -0.000024540289
 61      -0.000625785382
 62       0.000224641061
 63      -0.000095448612
 64      -0.000302208860
 65       0.002990239602
 66      -0.011992653955
 67      -0.000492262179
 68      -0.000511999018
 69       0.000000052971
 70       0.000000073099
 71       0.008017226709
 72      -0.000000823675
 73      -0.000001136287
 74      -0.000017389858
 75      -0.000000023686
 76      -0.000000000337
 77       0.000036267313
 78       0.000000014709
 79      -0.000003595652
 80      -0.000047373345
 81       0.000000007058
 82       0.001457432730
 83       0.000000751958
 84       0.000018316365
 85      -0.002790860310
 86       0.000000571892
 87       0.000000084736
 88      -0.000253909937
 89       0.000000025665
 90      -0.000000149196
 91      -0.000005584665
 92      -0.000588189461
 93       0.000000179009
 94      -0.000061919142
 95       0.000033432086
 96      -0.000059277855
 97      -0.002693163909
 98      -0.000875788257
 99      -0.000139205702
100       0.000164282529
101       0.000034871160
102      -0.001125984952
103      -0.000413150094
104      -0.000301985774
105      -0.001158178303
106       0.000928561183
107      -0.001749707777
108       0.000152996176
109       0.000019389060
110       0.000009869523
111      -0.000060042185
112       0.000075935567
113      -0.000847630165
114       0.000311222717
115      -0.000475055636
116      -0.000640916056
117      -0.000196198742
118      -0.000127441166
119      -0.000057819291
120      -0.000020993185
121      -0.000018357315
122       0.000001017737
123       0.000103431784
124       0.000018969342
125      -0.000061889763
126       0.000033466580
127      -0.000059172900
128      -0.002693300183
129      -0.000875155542
130      -0.000139226258
131      -0.000164251177
132      -0.000034810237
133      -0.001125901431
134       0.000413337990
135       0.000302344658
136      -0.001157862484
137      -0.000928135774
138       0.001750359159
139       0.000153008091
140      -0.000019270105
141       0.000009908838
142      -0.000060076318
143      -0.000075888658
144      -0.000847344202
145      -0.000311611050
146      -0.000475098753
147      -0.000640935026
148       0.000196290523
149       0.000127495836
150      -0.000057708452
151       0.000021010838
152       0.000018374429
153       0.000001006366
154       0.000103419926
155      -0.000019051404
156       0.467004077864
157       0.607982828448
158       0.037215941574
159      -0.011605473262
160       0.004737213010
161      -0.000034019587
162      -0.000000003863
163       0.000000066438
164       0.008700967440
165      -0.000001310497
166      -0.000001189375
167      -0.001894306775
168       0.000000220380
169       0.000000215038
170      -0.002447019320
171      -0.000000867341
172       0.000072418292
173       0.001284694521
174      -0.000000191008
175      -0.002386657040
176      -0.000000904958
177      -0.000195008664
178       0.002121629853
179      -0.000000248677
180       0.000000064562
181      -0.000406813489
182       0.000000080168
183      -0.000000668417
184      -0.000008252072
185      -0.002966952845
186       0.000000949892
187      -0.000005232418
188      -0.000226333494
189      -0.001125460581
190       0.000028643777
191      -0.000147924631
192      -0.000100610512
193       0.000083474979
194       0.001559029821
195       0.000346734818
196       0.000158412575
197      -0.000058565613
198      -0.000231570623
199      -0.000005216245
200      -0.000226388539
201      -0.001125665200
202       0.000028730105
203       0.000147884679
204       0.000100590762
205       0.000083477056
206       0.001558992874
207       0.000346796790
208       0.000158463145
209       0.000058513471
210       0.000231515980
 Sym=     1a
 Ene= -1.02602981462020E+01
 Spin= Alpha
 Occup= 2.000000
  1       0.000008039683
  2       0.000102583834
  3      -0.001008785675
  4       0.002117390257
  5      -0.002987243070
  6       0.000348371173
  7       0.000144730515
  8      -0.000018013435
  9      -0.001127087286
 10      -0.000924382818
 11      -0.000010811394
 12      -0.000227314281
 13       0.001937741595
 14       0.000295787250
 15       0.000021677608
 16       0.000018614536
 17       0.000022440908
 18      -0.000111653727
 19      -0.000094083264
 20      -0.000369904601
 21      -0.000121151637
 22      -0.000107023054
 23       0.000576661904
 24       0.000596899697
 25      -0.000065901594
 26       0.000217700228
 27       0.000074712576
 28       0.000053145707
 29       0.000053096692
 30       0.000218637278