
                                 *****************
                                 * O   R   C   A *
                                 *****************

                                            #,                                       
                                            ###                                      
                                            ####                                     
                                            #####                                    
                                            ######                                   
                                           ########,                                 
                                     ,,################,,,,,                         
                               ,,#################################,,                 
                          ,,##########################################,,             
                       ,#########################################, ''#####,          
                    ,#############################################,,   '####,        
                  ,##################################################,,,,####,       
                ,###########''''           ''''###############################       
              ,#####''   ,,,,##########,,,,          '''####'''          '####       
            ,##' ,,,,###########################,,,                        '##       
           ' ,,###''''                  '''############,,,                           
         ,,##''                                '''############,,,,        ,,,,,,###''
      ,#''                                            '''#######################'''  
     '                                                          ''''####''''         
             ,#######,   #######,   ,#######,      ##                                
            ,#'     '#,  ##    ##  ,#'     '#,    #''#        ,####,   ,####,        
            ##       ##  ##   ,#'  ##            #'  '#       #'       #'  '#        
            ##       ##  #######   ##           ,######,      #####,   #    #        
            '#,     ,#'  ##    ##  '#,     ,#' ,#      #,     #,   #   #,  ,#        
             '#######'   ##     ##  '#######'  #'      '#     '####' # '####'        



                #########################################################
                #                        -***-                          #
                #          Department of theory and spectroscopy        #
                #                                                       #
                #                      Frank Neese                      #
                #                                                       #
                #     Directorship, Architecture, Infrastructure        #
                #                    SHARK, DRIVERS                     #
                #        Core code/Algorithms in most modules           #
                #                                                       #
                #        Max Planck Institute fuer Kohlenforschung      #
                #                Kaiser Wilhelm Platz 1                 #
                #                 D-45470 Muelheim/Ruhr                 #
                #                      Germany                          #
                #                                                       #
                #                  All rights reserved                  #
                #                        -***-                          #
                #########################################################


                         Program Version 6.0.1  -  RELEASE   -


 With contributions from (in alphabetic order):
[Max-Planck-Institut fuer Kohlenforschung]                               
  Daniel Aravena         : Magnetic Suceptibility                        
  Michael Atanasov       : Ab Initio Ligand Field Theory (pilot matlab implementation)
  Alexander A. Auer      : GIAO ZORA, VPT2 properties, NMR spectrum      
  Ute Becker             : All parallelization in ORCA, NUMFREQ, NUMCALC 
  Giovanni Bistoni       : ED, misc. LED, open-shell LED, HFLD           
  Martin Brehm           : Molecular dynamics                            
  Dmytro Bykov           : pre 5.0 version of the SCF Hessian            
  Marcos Casanova-Páez   : Triplet and SCS-CIS(D). UHF-(DLPNO)-IP/EA/STEOM-CCSD. UHF-CVS-IP/STEOM-CCSD   
  Vijay G. Chilkuri      : MRCI spin determinant printing, contributions to CSF-ICE 
  Pauline Colinet        : FMM embedding                                 
  Dipayan Datta          : RHF DLPNO-CCSD density                        
  Achintya Kumar Dutta   : EOM-CC, STEOM-CC                              
  Nicolas Foglia         : Exact transition moments, OPA infrastructure, MCD improvements    
  Dmitry Ganyushin       : Spin-Orbit,Spin-Spin,Magnetic field MRCI      
  Miquel Garcia-Rates    : C-PCM and meta-GGA Hessian, CCSD/C-PCM, Gaussian charge scheme 
  Tiago L. C. Gouveia    : GS-ROHF, GS-ROCIS                             
  Yang Guo               : DLPNO-NEVPT2, F12-NEVPT2, CIM, IAO-localization        
  Andreas Hansen         : Spin unrestricted coupled pair/coupled cluster methods 
  Ingolf Harden          : AUTO-CI MPn and infrastructure                
  Benjamin Helmich-Paris : MC-RPA, TRAH-(SCF,CASSCF), AVAS, COSX integrals, SCF dyn. polar. 
  Lee Huntington         : MR-EOM, pCC                                   
  Robert Izsak           : Overlap fitted RIJCOSX, COSX-SCS-MP3, EOM     
  Riya Kayal             : Wick's Theorem for AUTO-CI, AUTO-CI UHF-CCSDT 
  Emily Kempfer          : AUTO-CI, RHF CISDT and CCSDT                  
  Christian Kollmar      : KDIIS, OOCD, Brueckner-CCSD(T), CCSD density, CASPT2, CASPT2-K, improved NEVPT2 
  Axel Koslowski         : Symmetry handling                             
  Simone Kossmann        : meta-GGA functionals, TD-DFT gradient, OOMP2, (MP2 Hessian; deprecated post 5.0) 
  Lucas Lang             : DCDCAS                                        
  Marvin Lechner         : AUTO-CI (C++ implementation), FIC-MRCC        
  Spencer Leger          : CASSCF response                               
  Dagmar Lenk            : GEPOL surface, SMD, ORCA-2-JSON               
  Dimitrios Liakos       : Extrapolation schemes; Compound Job, initial MDCI parallelization 
  Dimitrios Manganas     : Further ROCIS development; embedding schemes. LFT, Crystal Embedding 
  Dimitrios Pantazis     : SARC Basis sets                               
  Anastasios Papadopoulos: AUTO-CI, single reference methods and gradients 
  Taras Petrenko         : pre 6.0 DFT Hessian and TD-DFT gradient, (ASA, deprecated), ECA, 1-Electron XAS/XES, NRVS 
  Peter Pinski           : DLPNO-MP2, DLPNO-MP2 Gradient                 
  Christoph Reimann      : Effective Core Potentials                     
  Marius Retegan         : Local ZFS, SOC                                
  Christoph Riplinger    : Optimizer, TS searches, QM/MM, DLPNO-CCSD(T), (RO)-DLPNO pert. Triples 
  Michael Roemelt        : Original ROCIS implementation                 
  Masaaki Saitow         : Open-shell DLPNO-CCSD energy and density      
  Barbara Sandhoefer     : DKH picture change effects                    
  Kantharuban Sivalingam : CASSCF convergence/infrastructure, NEVPT2 and variants, FIC-MRCI 
  Bernardo de Souza      : ESD, SOC TD-DFT                               
  Georgi L. Stoychev     : AutoAux, RI-MP2 NMR, DLPNO-MP2 response, X2C  
  Van Anh Tran           : RI-MP2 g-tensors                              
  Willem Van den Heuvel  : Paramagnetic NMR                              
  Zikuan Wang            : NOTCH, Electric field optimization            
  Frank Wennmohs         : Technical directorship and infrastructure     
  Hang Xu                : AUTO-CI-Response properties                   
                                                                         
[FACCTs GmbH]                                                            
  Markus Bursch, Miquel Garcia-Rates, Christoph Riplinger, Bernardo de Souza, Georgi L. Stoychev 
                                                                 
  APM, Basis sets (HGBS, AHGBS, def-TZVP (Ac-Lr), def2-XVPD (La-Lu)), CI-OPT, improved COSX, DLPNO-Multilevel,           
  DOCKER, DRACO, updates on ESD, GOAT, IRC, LR-CPCM, MBIS, meta-GGA TD-DFT gradient, ML-optimized integration grids, 
  MM, NACMEs, nearIR, NEB, NEB-TS, NL-DFT gradient (VV10), 2- and 3-layer-ONIOM, interface openCOSMO-RS, QMMM,   
  Crystal-QMMM, SF, symmetry and pop. for TD-DFT, r2SCAN hybrids, SOLVATOR                                   
                                                                         
[Other institutions]                                                     
  V. Asgeirsson          : NEB                                           
  Christoph Bannwarth    : sTDA-DFT, sTD-DFT, PBEh-3c, B97-3c, D3        
  Sebastian Ehlert       : rSCAN, r2SCAN, r2SCAN-3c, D4, dhf basis sets  
  Marvin Friede          : D4 for Fr, Ra, Ac-Lr                          
  Lars Goerigk           : TD-DFT with DH, B97 family of functionals     
  Stefan Grimme          : VdW corrections, initial TS optimization, DFT functionals, gCP, sTDA/sTD-DF 
  Waldemar Hujo          : DFT-NL                                        
  H. Jonsson             : NEB                                           
  Holger Kruse           : gCP                                           
  Marcel Mueller         : wB97X-3c, vDZP basis set                      
  Hagen Neugebauer       : wr2SCAN                                       
  Tobias Risthaus        : range-separated hybrid DFT                    
  Lukas Wittmann         : regularized MP2, r2SCAN double-hybrids, wr2SCAN        
                                                                         
We gratefully acknowledge several colleagues who have allowed us to      
interface, adapt or use parts of their codes:                            
  Ed Valeev, F. Pavosevic, A. Kumar             : LibInt (2-el integral package), F12 methods 
  Garnet Chan, S. Sharma, J. Yang, R. Olivares  : DMRG                   
  Ulf Ekstrom                                   : XCFun DFT Library      
  Mihaly Kallay                                 : mrcc  (arbitrary order and MRCC methods)
  Frank Weinhold                                : gennbo (NPA and NBO analysis)           
  Simon Mueller                                 : openCOSMO-RS                            
  Christopher J. Cramer and Donald G. Truhlar   : smd solvation model                     
  S Lehtola, MJT Oliveira, MAL Marques          : LibXC Library                           
  Liviu Ungur et al                             : ANISO software                          


 Your calculation uses the libint2 library for the computation of 2-el integrals
 For citations please refer to: http://libint.valeyev.net

 Your ORCA version has been built with support for libXC version: 6.2.2
 For citations please refer to: https://libxc.gitlab.io

 This ORCA versions uses:
   CBLAS   interface :  Fast vector & matrix operations
   LAPACKE interface :  Fast linear algebra routines
   SCALAPACK package :  Parallel linear algebra routines
   Shared memory     :  Shared parallel matrices
   BLAS/LAPACK       :  OpenBLAS 0.3.27  USE64BITINT DYNAMIC_ARCH NO_AFFINITY SkylakeX SINGLE_THREADED
        Core in use  :  SkylakeX
   Copyright (c) 2011-2014, The OpenBLAS Project


NOTE: MaxCore=5000 MB was set to SCF,MP2,MDCI,CIPSI,MRCI and CIS
      => If you want to overwrite this, your respective input block should be placed after the MaxCore statement
Warning: RI is on but no J-basis has been assigned. Assigning Def2/J (nothing to worry about!)
================================================================================

----- Orbital basis set information -----
Your calculation utilizes the basis: def2-TZVP
   F. Weigend and R. Ahlrichs, Phys. Chem. Chem. Phys. 7, 3297 (2005).

----- AuxJ basis set information -----
Your calculation utilizes the auxiliary basis: def2/J
   F. Weigend, Phys. Chem. Chem. Phys. 8, 1057 (2006).

================================================================================
                                        WARNINGS
                       Please study these warnings very carefully!
================================================================================


================================================================================
                                       INPUT FILE
================================================================================
NAME = EC.inp
|  1> ! B3LYP def2-TZVP TightSCF
|  2> 
|  3> %maxcore 5000
|  4> 
|  5> %pal
|  6> nprocs 20
|  7> end
|  8> 
|  9> * xyz 0 1
| 10> O           0.00869967845445      1.11406471689826      0.00996550894439
| 11>   O           0.00846125352042     -1.11411596924689     -0.00989542641316
| 12>   O           1.97318737565643     -0.00023518912222     -0.00028760670878
| 13>   C          -1.36703015545739      0.74521165208713      0.17443467116584
| 14>   C          -1.36727648534335     -0.74494623945491     -0.17387210406671
| 15>   C           0.78622160243449     -0.00011368979485     -0.00011906771977
| 16>   H          -1.97428730823526      1.34995239763124     -0.49605497357016
| 17>   H          -1.66049078885011      0.93661918568593      1.20849056571510
| 18>   H          -1.97438660611837     -1.34954562076743      0.49687059862960
| 19>   H          -1.66109856606131     -0.93629124391626     -1.20783216597635
| 20> *
| 21> 
| 22>                          ****END OF INPUT****
================================================================================

                       ****************************
                       * Single Point Calculation *
                       ****************************

---------------------------------
CARTESIAN COORDINATES (ANGSTROEM)
---------------------------------
  O      0.008700    1.114065    0.009966
  O      0.008461   -1.114116   -0.009895
  O      1.973187   -0.000235   -0.000288
  C     -1.367030    0.745212    0.174435
  C     -1.367276   -0.744946   -0.173872
  C      0.786222   -0.000114   -0.000119
  H     -1.974287    1.349952   -0.496055
  H     -1.660491    0.936619    1.208491
  H     -1.974387   -1.349546    0.496871
  H     -1.661099   -0.936291   -1.207832

----------------------------
CARTESIAN COORDINATES (A.U.)
----------------------------
  NO LB      ZA    FRAG     MASS         X           Y           Z
   0 O     8.0000    0    15.999    0.016440    2.105277    0.018832
   1 O     8.0000    0    15.999    0.015989   -2.105374   -0.018700
   2 O     8.0000    0    15.999    3.728784   -0.000444   -0.000543
   3 C     6.0000    0    12.011   -2.583313    1.408246    0.329634
   4 C     6.0000    0    12.011   -2.583778   -1.407744   -0.328571
   5 C     6.0000    0    12.011    1.485744   -0.000215   -0.000225
   6 H     1.0000    0     1.008   -3.730862    2.551040   -0.937408
   7 H     1.0000    0     1.008   -3.137873    1.769954    2.283716
   8 H     1.0000    0     1.008   -3.731050   -2.550272    0.938949
   9 H     1.0000    0     1.008   -3.139021   -1.769334   -2.282472

--------------------------------
INTERNAL COORDINATES (ANGSTROEM)
--------------------------------
 O      0   0   0     0.000000000000     0.00000000     0.00000000
 O      1   0   0     2.228269212575     0.00000000     0.00000000
 O      2   1   0     2.258533027771    60.44234422     0.00000000
 C      1   2   3     1.433783548747    75.14767715   186.94291078
 C      2   1   3     1.433816224745    75.14692229   186.94109352
 C      3   2   1     1.186965791406    29.55746230     0.00000000
 H      4   1   2     1.088130958396   108.77305781   226.26487522
 H      4   1   2     1.091800155853   108.75033321   106.90249485
 H      5   2   1     1.088126317966   108.77083216   226.26675500
 H      5   2   1     1.091795647305   108.74753823   106.90177769

---------------------------
INTERNAL COORDINATES (A.U.)
---------------------------
 O      0   0   0     0.000000000000     0.00000000     0.00000000
 O      1   0   0     4.210818564415     0.00000000     0.00000000
 O      2   1   0     4.268008886904    60.44234422     0.00000000
 C      1   2   3     2.709458242454    75.14767715   186.94291078
 C      2   1   3     2.709519991142    75.14692229   186.94109352
 C      3   2   1     2.243040276090    29.55746230     0.00000000
 H      4   1   2     2.056269509209   108.77305781   226.26487522
 H      4   1   2     2.063203287536   108.75033321   106.90249485
 H      5   2   1     2.056260740069   108.77083216   226.26675500
 H      5   2   1     2.063194767614   108.74753823   106.90177769

---------------------
BASIS SET INFORMATION
---------------------
There are 3 groups of distinct atoms

 Group   1 Type O   : 11s6p2d1f contracted to 5s3p2d1f pattern {62111/411/11/1}
 Group   2 Type C   : 11s6p2d1f contracted to 5s3p2d1f pattern {62111/411/11/1}
 Group   3 Type H   : 5s1p contracted to 3s1p pattern {311/1}

Atom   0O    basis set group =>   1
Atom   1O    basis set group =>   1
Atom   2O    basis set group =>   1
Atom   3C    basis set group =>   2
Atom   4C    basis set group =>   2
Atom   5C    basis set group =>   2
Atom   6H    basis set group =>   3
Atom   7H    basis set group =>   3
Atom   8H    basis set group =>   3
Atom   9H    basis set group =>   3
---------------------------------
AUXILIARY/J BASIS SET INFORMATION
---------------------------------
There are 3 groups of distinct atoms

 Group   1 Type O   : 12s5p4d2f1g contracted to 6s4p3d1f1g pattern {711111/2111/211/2/1}
 Group   2 Type C   : 12s5p4d2f1g contracted to 6s4p3d1f1g pattern {711111/2111/211/2/1}
 Group   3 Type H   : 5s2p1d contracted to 3s1p1d pattern {311/2/1}

Atom   0O    basis set group =>   1
Atom   1O    basis set group =>   1
Atom   2O    basis set group =>   1
Atom   3C    basis set group =>   2
Atom   4C    basis set group =>   2
Atom   5C    basis set group =>   2
Atom   6H    basis set group =>   3
Atom   7H    basis set group =>   3
Atom   8H    basis set group =>   3
Atom   9H    basis set group =>   3
--------------------------------------------------------------------------
By default, for Open MPI 4.0 and later, infiniband ports on a device
are not used by default.  The intent is to use UCX for these devices.
You can override this policy by setting the btl_openib_allow_ib MCA parameter
to true.

  Local host:              psid01
  Local adapter:           mlx5_0
  Local port:              1

--------------------------------------------------------------------------
--------------------------------------------------------------------------
WARNING: There was an error initializing an OpenFabrics device.

  Local host:   psid01
  Local device: mlx5_0
--------------------------------------------------------------------------


           ************************************************************
           *        Program running with 20 parallel MPI-processes    *
           *              working on a common directory               *
           ************************************************************
------------------------------------------------------------------------------
                             ORCA STARTUP CALCULATIONS
                           -- RI-GTO INTEGRALS CHOSEN --
------------------------------------------------------------------------------
------------------------------------------------------------------------------
                   ___                                                        
                  /   \      - P O W E R E D   B Y -                         
                 /     \                                                     
                 |  |  |   _    _      __       _____    __    __             
                 |  |  |  | |  | |    /  \     |  _  \  |  |  /  |          
                  \  \/   | |  | |   /    \    | | | |  |  | /  /          
                 / \  \   | |__| |  /  /\  \   | |_| |  |  |/  /          
                |  |  |   |  __  | /  /__\  \  |    /   |      \           
                |  |  |   | |  | | |   __   |  |    \   |  |\   \          
                \     /   | |  | | |  |  |  |  | |\  \  |  | \   \       
                 \___/    |_|  |_| |__|  |__|  |_| \__\ |__|  \__/        
                                                                              
                      - O R C A' S   B I G   F R I E N D -                    
                                      &                                       
                       - I N T E G R A L  F E E D E R -                       
                                                                              
 v1 FN, 2020, v2 2021, v3 2022-2024                                           
------------------------------------------------------------------------------


----------------------
SHARK INTEGRAL PACKAGE
----------------------

Number of atoms                             ...     10
Number of basis functions                   ...    210
Number of shells                            ...     82
Maximum angular momentum                    ...      3
Integral batch strategy                     ... SHARK/LIBINT Hybrid
RI-J (if used) integral strategy            ... SPLIT-RIJ (Revised 2003 algorithm where possible)
Printlevel                                  ...      1
Contraction scheme used                     ... SEGMENTED contraction
Prescreening option                         ... SCHWARTZ
   Thresh                                   ... 2.500e-11
   Tcut                                     ... 2.500e-12
   Tpresel                                  ... 2.500e-12 
Coulomb Range Separation                    ... NOT USED
Exchange Range Separation                   ... NOT USED
Multipole approximations                    ... NOT USED
Finite Nucleus Model                        ... NOT USED
CABS basis                                  ... NOT available
Auxiliary Coulomb fitting basis             ... AVAILABLE
   # of basis functions in Aux-J            ...    338
   # of shells in Aux-J                     ...    110
   Maximum angular momentum in Aux-J        ...      4
Auxiliary J/K fitting basis                 ... NOT available
Auxiliary Correlation fitting basis         ... NOT available
Auxiliary 'external' fitting basis          ... NOT available

Checking pre-screening integrals            ... done (  0.0 sec) Dimension = 82
Check shell pair data                       ... done (  0.0 sec)
Shell pair information
Shell pair cut-off parameter TPreSel        ...   2.5e-12
Total number of shell pairs                 ...      3403
Shell pairs after pre-screening             ...      3271
Total number of primitive shell pairs       ...     10584
Primitive shell pairs kept                  ...      7998
          la=0 lb=0:    831 shell pairs
          la=1 lb=0:    900 shell pairs
          la=1 lb=1:    251 shell pairs
          la=2 lb=0:    484 shell pairs
          la=2 lb=1:    260 shell pairs
          la=2 lb=2:     78 shell pairs
          la=3 lb=0:    242 shell pairs
          la=3 lb=1:    132 shell pairs
          la=3 lb=2:     72 shell pairs
          la=3 lb=3:     21 shell pairs

Calculating one electron integrals          ... done (  0.0 sec)
Calculating RI/J V-Matrix + Cholesky decomp.... done (  0.0 sec)
Calculating Nuclear repulsion               ... done (  0.0 sec) ENN=    246.236642550654 Eh

Diagonalization of the overlap matrix:
Smallest eigenvalue                        ... 3.815e-04
Time for diagonalization                   ...    0.004 sec
Threshold for overlap eigenvalues          ... 1.000e-07
Number of eigenvalues below threshold      ... 0
Time for construction of square roots      ...    0.003 sec
Total time needed                          ...    0.012 sec

-------------------
DFT GRID GENERATION
-------------------

General Integration Accuracy     IntAcc      ... 4.388
Radial Grid Type                 RadialGrid  ... OptM3 with GC (2021)
Angular Grid (max. ang.)         AngularGrid ... 4 (Lebedev-302)
Angular grid pruning method      GridPruning ... 4 (adaptive)
Weight generation scheme         WeightScheme... mBecke (2022)
Basis function cutoff            BFCut       ... 1.0000e-11
Integration weight cutoff        WCut        ... 1.0000e-14
Partially contracted basis set               ... off
Rotationally invariant grid construction     ... off
Angular grids for H and He will be reduced by one unit

Total number of grid points                  ...    49322
Total number of batches                      ...      776
Average number of points per batch           ...       63
Average number of grid points per atom       ...     4932

--------------------
COSX GRID GENERATION
--------------------

GRIDX 1
-------
General Integration Accuracy     IntAcc      ... 3.816
Radial Grid Type                 RadialGrid  ... OptM3 with GC (2021)
Angular Grid (max. ang.)         AngularGrid ... 1 (Lebedev-50)
Angular grid pruning method      GridPruning ... 4 (adaptive)
Weight generation scheme         WeightScheme... mBecke (2022)
Basis function cutoff            BFCut       ... 1.0000e-11
Integration weight cutoff        WCut        ... 1.0000e-14
Partially contracted basis set               ... on
Rotationally invariant grid construction     ... off
Angular grids for H and He will be reduced by one unit

Total number of grid points                  ...     6276
Total number of batches                      ...       56
Average number of points per batch           ...      112
Average number of grid points per atom       ...      628
UseSFitting                                  ... on

GRIDX 2
-------
General Integration Accuracy     IntAcc      ... 4.020
Radial Grid Type                 RadialGrid  ... OptM3 with GC (2021)
Angular Grid (max. ang.)         AngularGrid ... 2 (Lebedev-110)
Angular grid pruning method      GridPruning ... 4 (adaptive)
Weight generation scheme         WeightScheme... mBecke (2022)
Basis function cutoff            BFCut       ... 1.0000e-11
Integration weight cutoff        WCut        ... 1.0000e-14
Partially contracted basis set               ... on
Rotationally invariant grid construction     ... off
Angular grids for H and He will be reduced by one unit

Total number of grid points                  ...    14049
Total number of batches                      ...      114
Average number of points per batch           ...      123
Average number of grid points per atom       ...     1405
UseSFitting                                  ... on

GRIDX 3
-------
General Integration Accuracy     IntAcc      ... 4.338
Radial Grid Type                 RadialGrid  ... OptM3 with GC (2021)
Angular Grid (max. ang.)         AngularGrid ... 3 (Lebedev-194)
Angular grid pruning method      GridPruning ... 4 (adaptive)
Weight generation scheme         WeightScheme... mBecke (2022)
Basis function cutoff            BFCut       ... 1.0000e-11
Integration weight cutoff        WCut        ... 1.0000e-14
Partially contracted basis set               ... on
Rotationally invariant grid construction     ... off
Angular grids for H and He will be reduced by one unit

Total number of grid points                  ...    31053
Total number of batches                      ...      246
Average number of points per batch           ...      126
Average number of grid points per atom       ...     3105
UseSFitting                                  ... on
Initializing property integral containers    ... done (  0.0 sec)

SHARK setup successfully completed in   0.6 seconds

Maximum memory used throughout the entire STARTUP-calculation: 16.6 MB
[psid01:240165] 19 more processes have sent help message help-mpi-btl-openib.txt / ib port not selected
[psid01:240165] Set MCA parameter "orte_base_help_aggregate" to 0 to see all help / error messages
[psid01:240165] 19 more processes have sent help message help-mpi-btl-openib.txt / error in device init
--------------------------------------------------------------------------
By default, for Open MPI 4.0 and later, infiniband ports on a device
are not used by default.  The intent is to use UCX for these devices.
You can override this policy by setting the btl_openib_allow_ib MCA parameter
to true.

  Local host:              psid01
  Local adapter:           mlx5_0
  Local port:              1

--------------------------------------------------------------------------
--------------------------------------------------------------------------
WARNING: There was an error initializing an OpenFabrics device.

  Local host:   psid01
  Local device: mlx5_0
--------------------------------------------------------------------------


           ************************************************************
           *        Program running with 20 parallel MPI-processes    *
           *              working on a common directory               *
           ************************************************************
-------------------------------------------------------------------------------
                                 ORCA GUESS
                   Start orbitals & Density for SCF / CASSCF
-------------------------------------------------------------------------------

------------
SCF SETTINGS
------------
Hamiltonian:
 Density Functional     Method          .... DFT(GTOs)
 Exchange Functional    Exchange        .... B88
   X-Alpha parameter    XAlpha          ....  0.666667
   Becke's b parameter  XBeta           ....  0.004200
 Correlation Functional Correlation     .... LYP
 LDA part of GGA corr.  LDAOpt          .... VWN-5
 Gradients option       PostSCFGGA      .... off
 Hybrid DFT is turned on
   Fraction HF Exchange ScalHFX         ....  0.200000
   Scaling of DF-GGA-X  ScalDFX         ....  0.720000
   Scaling of DF-GGA-C  ScalDFC         ....  0.810000
   Scaling of DF-LDA-C  ScalLDAC        ....  1.000000
   Perturbative correction              ....  0.000000
   NL short-range parameter             ....  4.800000
 RI-approximation to the Coulomb term is turned on
   Number of AuxJ basis functions       .... 338
   RIJ-COSX (HFX calculated with COS-X)).... on


General Settings:
 Integral files         IntName         .... EC
 Hartree-Fock type      HFTyp           .... RHF
 Total Charge           Charge          ....    0
 Multiplicity           Mult            ....    1
 Number of Electrons    NEL             ....   46
 Basis Dimension        Dim             ....  210
 Nuclear Repulsion      ENuc            ....    246.2366425507 Eh

Convergence Acceleration:
 AO-DIIS                CNVDIIS         .... on
   Start iteration      DIISMaxIt       ....    12
   Startup error        DIISStart       ....  0.200000
   # of expansion vecs  DIISMaxEq       ....     5
   Bias factor          DIISBfac        ....   1.050
   Max. coefficient     DIISMaxC        ....  10.000
 MO-DIIS                CNVKDIIS        .... off
 Trust-Rad. Augm. Hess. CNVTRAH         .... auto
   Auto Start mean grad. ratio tolernc. ....  1.125000
   Auto Start start iteration           ....    50
   Auto Start num. interpolation iter.  ....    10
   Max. Number of Micro iterations      ....    24
   Max. Number of Macro iterations      .... Maxiter - #DIIS iter
   Number of Davidson start vectors     ....     2
   Converg. threshold    (grad. norm)   ....   1.000e-05
   Grad. Scal. Fac. for Micro threshold ....   0.100
   Minimum threshold for Micro iter.    ....   1.000e-02
   NR start threshold (gradient norm)   ....   1.000e-04
   Initial trust radius                 ....   0.400
   Minimum AH scaling param. (alpha)    ....   1.000
   Maximum AH scaling param. (alpha)    .... 1000.000
   Quad. conv. algorithm                .... NR
   White noise on init. David. guess    .... on
   Maximum white noise                  ....   0.010
   Pseudo random numbers                .... off
   Inactive MOs                         .... canonical
   Orbital update algorithm             .... Taylor
   Preconditioner                       .... Diag
   Full preconditioner red. dimension   ....   250
 SOSCF                  CNVSOSCF        .... on
   Start iteration      SOSCFMaxIt      ....   150
   Startup grad/error   SOSCFStart      ....  0.003300
   Hessian update       SOSCFHessUp     .... L-BFGS
 Level Shifting         CNVShift        .... on
   Level shift para.    LevelShift      ....    0.2500
   Turn off err/grad.   ShiftErr        ....    0.0010
 Zerner damping         CNVZerner       .... off
 Static damping         CNVDamp         .... on
   Fraction old density DampFac         ....    0.7000
   Max. Damping (<1)    DampMax         ....    0.9800
   Min. Damping (>=0)   DampMin         ....    0.0000
   Turn off err/grad.   DampErr         ....    0.1000

SCF Procedure:
 Maximum # iterations   MaxIter         ....   125
 SCF integral mode      SCFMode         .... Direct
   Integral package                     .... SHARK and LIBINT hybrid scheme
 Reset frequency        DirectResetFreq ....    20
 Integral Threshold     Thresh          ....  2.500e-11 Eh
 Primitive CutOff       TCut            ....  2.500e-12 Eh

Convergence Tolerance:
 Convergence Check Mode ConvCheckMode   .... Total+1el-Energy
 Convergence forced     ConvForced      .... 0
 Energy Change          TolE            ....  1.000e-08 Eh
 1-El. energy change                    ....  1.000e-05 Eh
 Orbital Gradient       TolG            ....  1.000e-05
 Orbital Rotation angle TolX            ....  1.000e-05
 DIIS Error             TolErr          ....  5.000e-07

------------------------------
INITIAL GUESS: MODEL POTENTIAL
------------------------------
Loading Hartree-Fock densities                     ... done
Calculating cut-offs                               ... done
Initializing the effective Hamiltonian             ... done
Setting up the integral package (SHARK)            ... done
Starting the Coulomb interaction                   ... done (   0.0 sec)
Making the grid                                    ... done (   0.1 sec)
Mapping shells                                     ... done
Starting the XC term evaluation                    ... done (   0.0 sec)
  promolecular density results
     # of electrons  =     45.995283895
     EX              =    -41.229623081
     EC              =     -1.616244352
     EX+EC           =    -42.845867433
Transforming the Hamiltonian                       ... done (   0.0 sec)
Diagonalizing the Hamiltonian                      ... done (   0.0 sec)
Back transforming the eigenvectors                 ... done (   0.0 sec)
Now organizing SCF variables                       ... done
                      ------------------
                      INITIAL GUESS DONE (   0.1 sec)
                      ------------------
             **** ENERGY FILE WAS UPDATED (EC.en.tmp) ****
Finished Guess after   0.7 sec
Maximum memory used throughout the entire GUESS-calculation: 11.7 MB
[psid01:240231] 19 more processes have sent help message help-mpi-btl-openib.txt / ib port not selected
[psid01:240231] Set MCA parameter "orte_base_help_aggregate" to 0 to see all help / error messages
[psid01:240231] 19 more processes have sent help message help-mpi-btl-openib.txt / error in device init
--------------------------------------------------------------------------
By default, for Open MPI 4.0 and later, infiniband ports on a device
are not used by default.  The intent is to use UCX for these devices.
You can override this policy by setting the btl_openib_allow_ib MCA parameter
to true.

  Local host:              psid01
  Local adapter:           mlx5_0
  Local port:              1

--------------------------------------------------------------------------
--------------------------------------------------------------------------
WARNING: There was an error initializing an OpenFabrics device.

  Local host:   psid01
  Local device: mlx5_0
--------------------------------------------------------------------------


           ************************************************************
           *        Program running with 20 parallel MPI-processes    *
           *              working on a common directory               *
           ************************************************************

-------------------------------------------------------------------------------------------
                                      ORCA LEAN-SCF
                              memory conserving SCF solver
-------------------------------------------------------------------------------------------

----------------------------------------D-I-I-S--------------------------------------------
Iteration    Energy (Eh)           Delta-E    RMSDP     MaxDP     DIISErr   Damp  Time(sec)
-------------------------------------------------------------------------------------------
               ***  Starting incremental Fock matrix formation  ***
    1    -342.1767858406674350     0.00e+00  1.74e-03  6.42e-02  3.16e-01  0.700   0.4
    2    -342.2731935167028041    -9.64e-02  1.09e-03  3.52e-02  1.16e-01  0.700   0.3
                               ***Turning on AO-DIIS***
    3    -342.3043856893884822    -3.12e-02  4.29e-04  7.28e-03  3.08e-02  0.700   0.3
    4    -342.3255645752770988    -2.12e-02  6.44e-04  1.33e-02  1.49e-02  0.000   0.3
    5    -342.3741134146367813    -4.85e-02  1.85e-04  3.95e-03  4.98e-03  0.000   0.3
                              *** Initializing SOSCF ***
---------------------------------------S-O-S-C-F--------------------------------------
Iteration    Energy (Eh)           Delta-E    RMSDP     MaxDP     MaxGrad    Time(sec)
--------------------------------------------------------------------------------------
    6    -342.3742734338536593    -1.60e-04  6.42e-05  1.19e-03  2.21e-03     0.3
               *** Restarting incremental Fock matrix formation ***
    7    -342.3742832748591809    -9.84e-06  4.20e-05  1.07e-03  5.39e-04     0.4
    8    -342.3742742555854193     9.02e-06  2.37e-05  8.06e-04  1.24e-03     0.4
    9    -342.3742873202858163    -1.31e-05  5.89e-06  1.90e-04  1.14e-04     0.3
   10    -342.3742870727103309     2.48e-07  3.70e-06  1.13e-04  1.74e-04     0.3
   11    -342.3742874487512609    -3.76e-07  3.87e-07  7.33e-06  2.86e-06     0.3
   12    -342.3742874512254275    -2.47e-09  1.84e-07  2.88e-06  2.51e-06     0.3
                 **** Energy Check signals convergence ****

               *****************************************************
               *                     SUCCESS                       *
               *           SCF CONVERGED AFTER  12 CYCLES          *
               *****************************************************

Recomputing exchange energy using gridx3       ... done (    0.405 sec)
Old exchange energy                            :     -8.338203818 Eh
New exchange energy                            :     -8.338208612 Eh
Exchange energy change after final integration :     -0.000004794 Eh
Total energy after final integration           :   -342.374292245 Eh
             **** ENERGY FILE WAS UPDATED (EC.en.tmp) ****

----------------
TOTAL SCF ENERGY
----------------

Total Energy       :       -342.37429224497220 Eh           -9316.47813 eV

Components:
Nuclear Repulsion  :        246.23664255065447 Eh            6700.43969 eV
Electronic Energy  :       -588.61093000187986 Eh          -16016.91769 eV
One Electron Energy:       -955.25049877209619 Eh          -25993.68757 eV
Two Electron Energy:        366.63956877021633 Eh            9976.76988 eV

Virial components:
Potential Energy   :       -683.39660597362297 Eh          -18596.16706 eV
Kinetic Energy     :        341.02231372865077 Eh            9279.68893 eV
Virial Ratio       :          2.00396448696139

DFT components:
N(Alpha)           :       23.000004430445 electrons
N(Beta)            :       23.000004430445 electrons
N(Total)           :       46.000008860891 electrons
E(X)               :      -33.204908897129 Eh       
E(C)               :       -1.902022777333 Eh       
E(XC)              :      -35.106931674463 Eh       

---------------
SCF CONVERGENCE
---------------

  Last Energy change         ...    2.4742e-09  Tolerance :   1.0000e-08
  Last MAX-Density change    ...    2.8774e-06  Tolerance :   1.0000e-07
  Last RMS-Density change    ...    1.8397e-07  Tolerance :   5.0000e-09
  Last DIIS Error            ...    2.2074e-03  Tolerance :   5.0000e-07
  Last Orbital Gradient      ...    2.5109e-06  Tolerance :   1.0000e-05
  Last Orbital Rotation      ...    2.0215e-06  Tolerance :   1.0000e-05


----------------
ORBITAL ENERGIES
----------------

  NO   OCC          E(Eh)            E(eV) 
   0   2.0000     -19.189307      -522.1676 
   1   2.0000     -19.189290      -522.1671 
   2   2.0000     -19.115451      -520.1579 
   3   2.0000     -10.347392      -281.5669 
   4   2.0000     -10.260298      -279.1969 
   5   2.0000     -10.260082      -279.1910 
   6   2.0000      -1.164430       -31.6857 
   7   2.0000      -1.053599       -28.6699 
   8   2.0000      -1.047439       -28.5023 
   9   2.0000      -0.793547       -21.5935 
  10   2.0000      -0.689038       -18.7497 
  11   2.0000      -0.616383       -16.7726 
  12   2.0000      -0.554003       -15.0752 
  13   2.0000      -0.527987       -14.3673 
  14   2.0000      -0.515854       -14.0371 
  15   2.0000      -0.453671       -12.3450 
  16   2.0000      -0.449557       -12.2331 
  17   2.0000      -0.446603       -12.1527 
  18   2.0000      -0.390198       -10.6178 
  19   2.0000      -0.387915       -10.5557 
  20   2.0000      -0.321924        -8.7600 
  21   2.0000      -0.319890        -8.7046 
  22   2.0000      -0.304672        -8.2906 
  23   0.0000       0.017678         0.4810 
  24   0.0000       0.027267         0.7420 
  25   0.0000       0.031534         0.8581 
  26   0.0000       0.058093         1.5808 
  27   0.0000       0.066904         1.8206 
  28   0.0000       0.115750         3.1497 
  29   0.0000       0.121469         3.3053 
  30   0.0000       0.131430         3.5764 
  31   0.0000       0.161596         4.3973 
  32   0.0000       0.164625         4.4797 
  33   0.0000       0.195618         5.3230 
*Only the first 10 virtual orbitals were printed.

                    ********************************
                    * MULLIKEN POPULATION ANALYSIS *
                    ********************************

-----------------------
MULLIKEN ATOMIC CHARGES
-----------------------
   0 O :   -0.251753
   1 O :   -0.251755
   2 O :   -0.264889
   3 C :   -0.013518
   4 C :   -0.013523
   5 C :    0.355020
   6 H :    0.114872
   7 H :    0.105331
   8 H :    0.114876
   9 H :    0.105338
Sum of atomic charges:   -0.0000000

--------------------------------
MULLIKEN REDUCED ORBITAL CHARGES
--------------------------------
  0 O s       :     3.780019  s :     3.780019
      pz      :     1.726691  p :     4.429269
      px      :     1.215345
      py      :     1.487232
      dz2     :     0.004666  d :     0.040431
      dxz     :     0.005398
      dyz     :     0.005407
      dx2y2   :     0.011049
      dxy     :     0.013910
      f0      :     0.000282  f :     0.002034
      f+1     :     0.000351
      f-1     :     0.000222
      f+2     :     0.000124
      f-2     :     0.000168
      f+3     :     0.000472
      f-3     :     0.000415

  1 O s       :     3.780023  s :     3.780023
      pz      :     1.726730  p :     4.429267
      px      :     1.215259
      py      :     1.487278
      dz2     :     0.004666  d :     0.040430
      dxz     :     0.005398
      dyz     :     0.005407
      dx2y2   :     0.011045
      dxy     :     0.013914
      f0      :     0.000282  f :     0.002034
      f+1     :     0.000351
      f-1     :     0.000222
      f+2     :     0.000124
      f-2     :     0.000168
      f+3     :     0.000472
      f-3     :     0.000415

  2 O s       :     3.785397  s :     3.785397
      pz      :     1.424720  p :     4.447084
      px      :     1.297600
      py      :     1.724765
      dz2     :     0.002491  d :     0.030461
      dxz     :     0.011921
      dyz     :     0.000088
      dx2y2   :     0.007640
      dxy     :     0.008320
      f0      :     0.000220  f :     0.001946
      f+1     :     0.000173
      f-1     :     0.000025
      f+2     :     0.000506
      f-2     :     0.000017
      f+3     :     0.000397
      f-3     :     0.000609

  3 C s       :     3.222974  s :     3.222974
      pz      :     1.040203  p :     2.676127
      px      :     0.708855
      py      :     0.927069
      dz2     :     0.011458  d :     0.104514
      dxz     :     0.032414
      dyz     :     0.012392
      dx2y2   :     0.019026
      dxy     :     0.029225
      f0      :     0.001533  f :     0.009903
      f+1     :     0.001090
      f-1     :     0.000710
      f+2     :     0.001612
      f-2     :     0.000640
      f+3     :     0.002394
      f-3     :     0.001924

  4 C s       :     3.222983  s :     3.222983
      pz      :     1.040237  p :     2.676127
      px      :     0.708866
      py      :     0.927024
      dz2     :     0.011451  d :     0.104510
      dxz     :     0.032417
      dyz     :     0.012394
      dx2y2   :     0.019027
      dxy     :     0.029223
      f0      :     0.001533  f :     0.009902
      f+1     :     0.001090
      f-1     :     0.000710
      f+2     :     0.001612
      f-2     :     0.000640
      f+3     :     0.002394
      f-3     :     0.001924

  5 C s       :     3.005894  s :     3.005894
      pz      :     0.804232  p :     2.303924
      px      :     0.764369
      py      :     0.735324
      dz2     :     0.010180  d :     0.303084
      dxz     :     0.078401
      dyz     :     0.044727
      dx2y2   :     0.061557
      dxy     :     0.108218
      f0      :     0.003507  f :     0.032079
      f+1     :     0.001965
      f-1     :     0.001316
      f+2     :     0.003466
      f-2     :     0.004151
      f+3     :     0.005373
      f-3     :     0.012301

  6 H s       :     0.864090  s :     0.864090
      pz      :     0.007439  p :     0.021038
      px      :     0.006215
      py      :     0.007384

  7 H s       :     0.873653  s :     0.873653
      pz      :     0.012870  p :     0.021016
      px      :     0.003714
      py      :     0.004432

  8 H s       :     0.864086  s :     0.864086
      pz      :     0.007442  p :     0.021038
      px      :     0.006214
      py      :     0.007382

  9 H s       :     0.873646  s :     0.873646
      pz      :     0.012868  p :     0.021016
      px      :     0.003716
      py      :     0.004431



                     *******************************
                     * LOEWDIN POPULATION ANALYSIS *
                     *******************************

----------------------
LOEWDIN ATOMIC CHARGES
----------------------
   0 O :    0.249524
   1 O :    0.249515
   2 O :    0.130896
   3 C :   -0.265036
   4 C :   -0.265004
   5 C :   -0.608369
   6 H :    0.128849
   7 H :    0.125388
   8 H :    0.128849
   9 H :    0.125389

-------------------------------
LOEWDIN REDUCED ORBITAL CHARGES
-------------------------------
  0 O s       :     3.276274  s :     3.276274
      pz      :     1.599469  p :     4.362678
      px      :     1.266446
      py      :     1.496763
      dz2     :     0.011495  d :     0.104271
      dxz     :     0.016172
      dyz     :     0.007947
      dx2y2   :     0.030423
      dxy     :     0.038233
      f0      :     0.000606  f :     0.007253
      f+1     :     0.000793
      f-1     :     0.000473
      f+2     :     0.000559
      f-2     :     0.000643
      f+3     :     0.002016
      f-3     :     0.002161

  1 O s       :     3.276286  s :     3.276286
      pz      :     1.599495  p :     4.362679
      px      :     1.266382
      py      :     1.496802
      dz2     :     0.011494  d :     0.104267
      dxz     :     0.016171
      dyz     :     0.007946
      dx2y2   :     0.030416
      dxy     :     0.038240
      f0      :     0.000606  f :     0.007252
      f+1     :     0.000793
      f-1     :     0.000473
      f+2     :     0.000559
      f-2     :     0.000643
      f+3     :     0.002016
      f-3     :     0.002161

  2 O s       :     3.397125  s :     3.397125
      pz      :     1.336922  p :     4.398269
      px      :     1.480475
      py      :     1.580873
      dz2     :     0.008685  d :     0.067009
      dxz     :     0.016468
      dyz     :     0.000155
      dx2y2   :     0.027076
      dxy     :     0.014625
      f0      :     0.000574  f :     0.006701
      f+1     :     0.001155
      f-1     :     0.000090
      f+2     :     0.001034
      f-2     :     0.000072
      f+3     :     0.002226
      f-3     :     0.001551

  3 C s       :     2.813463  s :     2.813463
      pz      :     1.066123  p :     2.901894
      px      :     0.807179
      py      :     1.028592
      dz2     :     0.079388  d :     0.480379
      dxz     :     0.111793
      dyz     :     0.064610
      dx2y2   :     0.108335
      dxy     :     0.116255
      f0      :     0.008319  f :     0.069300
      f+1     :     0.006780
      f-1     :     0.004579
      f+2     :     0.010793
      f-2     :     0.007103
      f+3     :     0.015849
      f-3     :     0.015877

  4 C s       :     2.813473  s :     2.813473
      pz      :     1.066146  p :     2.901883
      px      :     0.807172
      py      :     1.028566
      dz2     :     0.079345  d :     0.480353
      dxz     :     0.111818
      dyz     :     0.064615
      dx2y2   :     0.108330
      dxy     :     0.116245
      f0      :     0.008319  f :     0.069295
      f+1     :     0.006779
      f-1     :     0.004582
      f+2     :     0.010785
      f-2     :     0.007102
      f+3     :     0.015851
      f-3     :     0.015877

  5 C s       :     2.739197  s :     2.739197
      pz      :     0.782240  p :     2.600938
      px      :     0.960929
      py      :     0.857769
      dz2     :     0.078488  d :     1.076899
      dxz     :     0.201903
      dyz     :     0.130021
      dx2y2   :     0.274044
      dxy     :     0.392443
      f0      :     0.010872  f :     0.191334
      f+1     :     0.013477
      f-1     :     0.010811
      f+2     :     0.023372
      f-2     :     0.024696
      f+3     :     0.035470
      f-3     :     0.072637

  6 H s       :     0.811836  s :     0.811836
      pz      :     0.022918  p :     0.059315
      px      :     0.016711
      py      :     0.019685

  7 H s       :     0.815357  s :     0.815357
      pz      :     0.035807  p :     0.059255
      px      :     0.010688
      py      :     0.012760

  8 H s       :     0.811835  s :     0.811835
      pz      :     0.022926  p :     0.059316
      px      :     0.016708
      py      :     0.019682

  9 H s       :     0.815355  s :     0.815355
      pz      :     0.035804  p :     0.059256
      px      :     0.010693
      py      :     0.012759



                      *****************************
                      * MAYER POPULATION ANALYSIS *
                      *****************************

  NA   - Mulliken gross atomic population
  ZA   - Total nuclear charge
  QA   - Mulliken gross atomic charge
  VA   - Mayer's total valence
  BVA  - Mayer's bonded valence
  FA   - Mayer's free valence

  ATOM       NA         ZA         QA         VA         BVA        FA
  0 O      8.2518     8.0000    -0.2518     2.1119     2.1119     0.0000
  1 O      8.2518     8.0000    -0.2518     2.1119     2.1119    -0.0000
  2 O      8.2649     8.0000    -0.2649     2.2396     2.2396    -0.0000
  3 C      6.0135     6.0000    -0.0135     3.8803     3.8803    -0.0000
  4 C      6.0135     6.0000    -0.0135     3.8803     3.8803    -0.0000
  5 C      5.6450     6.0000     0.3550     4.5171     4.5171    -0.0000
  6 H      0.8851     1.0000     0.1149     0.9575     0.9575     0.0000
  7 H      0.8947     1.0000     0.1053     0.9576     0.9576    -0.0000
  8 H      0.8851     1.0000     0.1149     0.9575     0.9575     0.0000
  9 H      0.8947     1.0000     0.1053     0.9576     0.9576    -0.0000

  Mayer bond orders larger than 0.100000
B(  0-O ,  3-C ) :   0.9447 B(  0-O ,  5-C ) :   1.1420 B(  1-O ,  4-C ) :   0.9447 
B(  1-O ,  5-C ) :   1.1421 B(  2-O ,  5-C ) :   2.1661 B(  3-C ,  4-C ) :   0.9848 
B(  3-C ,  6-H ) :   0.9599 B(  3-C ,  7-H ) :   0.9589 B(  4-C ,  8-H ) :   0.9599 
B(  4-C ,  9-H ) :   0.9589 

-------
TIMINGS
-------

Total SCF time: 0 days 0 hours 0 min 5 sec 

Total time                  ....       5.104 sec
Sum of individual times     ....       5.015 sec  ( 98.3%)

SCF preparation             ....       0.610 sec  ( 12.0%)
Fock matrix formation       ....       3.909 sec  ( 76.6%)
  Startup                   ....       0.063 sec  (  1.6% of F)
  Split-RI-J                ....       0.293 sec  (  7.5% of F)
  Chain of spheres X        ....       2.475 sec  ( 63.3% of F)
  XC integration            ....       0.893 sec  ( 22.9% of F)
    Basis function eval.    ....       0.133 sec  ( 14.9% of XC)
    Density eval.           ....       0.087 sec  (  9.8% of XC)
    XC-Functional eval.     ....       0.029 sec  (  3.2% of XC)
    XC-Potential eval.      ....       0.181 sec  ( 20.2% of XC)
Diagonalization             ....       0.000 sec  (  0.0%)
Density matrix formation    ....       0.135 sec  (  2.6%)
Total Energy calculation    ....       0.044 sec  (  0.9%)
Population analysis         ....       0.019 sec  (  0.4%)
Orbital Transformation      ....       0.032 sec  (  0.6%)
Orbital Orthonormalization  ....       0.000 sec  (  0.0%)
DIIS solution               ....       0.175 sec  (  3.4%)
SOSCF solution              ....       0.092 sec  (  1.8%)
Finished LeanSCF after   5.1 sec

Maximum memory used throughout the entire LEANSCF-calculation: 18.0 MB
[psid01:240296] 19 more processes have sent help message help-mpi-btl-openib.txt / ib port not selected
[psid01:240296] Set MCA parameter "orte_base_help_aggregate" to 0 to see all help / error messages
[psid01:240296] 19 more processes have sent help message help-mpi-btl-openib.txt / error in device init

-------------------------   --------------------
FINAL SINGLE POINT ENERGY      -342.374292244972
-------------------------   --------------------

--------------------------------------------------------------------------
By default, for Open MPI 4.0 and later, infiniband ports on a device
are not used by default.  The intent is to use UCX for these devices.
You can override this policy by setting the btl_openib_allow_ib MCA parameter
to true.

  Local host:              psid01
  Local adapter:           mlx5_0
  Local port:              1

--------------------------------------------------------------------------
--------------------------------------------------------------------------
WARNING: There was an error initializing an OpenFabrics device.

  Local host:   psid01
  Local device: mlx5_0
--------------------------------------------------------------------------


           ************************************************************
           *        Program running with 20 parallel MPI-processes    *
           *              working on a common directory               *
           ************************************************************

------------------------------------------------------------------------------
                              ORCA PROPERTY CALCULATIONS
------------------------------------------------------------------------------

GBWName                                 ... EC.gbw
Number of atoms                         ...     10
Number of basis functions               ...    210
Max core memory                         ...   5000 MB

Electric properties:
Dipole moment                           ... YES
Quadrupole moment                       ...  NO
Static polarizability (Dipole/Dipole)   ...  NO
Static polarizability (Dipole/Quad.)    ...  NO
Static polarizability (Quad./Quad.)     ...  NO
Static polarizability (Velocity)        ...  NO

Atomic electric properties:
Dipole moment                           ...  NO
Quadrupole moment                       ...  NO
Static polarizability                   ...  NO

Choice of electric origin               ... Center of mass
Position of electric origin             ...     0.023963    -0.000043     0.000072

General magnetic properties:
Magnetizability                         ...  NO

EPR properties:
g-Tensor (aka g-matrix)                 ...  NO
Zero-Field splitting spin-orbit         ...  NO
Zero-field splitting spin-spin          ...  NO
Hyperfine couplings                     ...  NO (   0 nuclei)
Quadrupole couplings                    ...  NO (   0 nuclei)
Contact density                         ...  NO (   0 nuclei)

NMR properties:
Chemical shifts                         ...  NO (   0 nuclei)
Spin-rotation constants                 ...  NO (   0 nuclei)
Spin-spin couplings                     ...  NO (   0 nuclei,    0 pairs)

Choice of magnetic origin               ... GIAO
Position of magnetic origin             ...     0.000000     0.000000     0.000000

Properties with geometric perturbations:
SCF Hessian                             ...  NO
IR spectrum                             ...  NO
VCD spectrum                            ...  NO
X-ray spectroscopy properties:
SCF XES/XAS/RIXS spectra                ...  NO


-------------
DIPOLE MOMENT
-------------

Method             : SCF
Type of density    : Electron Density
Multiplicity       :   1
Irrep              :   0
Energy             :  -342.3742922449721959 Eh
Relativity type    : 
Basis              : AO
                                X                 Y                 Z
Electronic contribution:      4.704715178      -0.000551127      -0.000887581
Nuclear contribution   :     -6.839504099       0.000772151       0.001235986
                        -----------------------------------------
Total Dipole Moment    :     -2.134788920       0.000221025       0.000348405
                        -----------------------------------------
Magnitude (a.u.)       :      2.134788960
Magnitude (Debye)      :      5.426202310



--------------------
Rotational spectrum 
--------------------
 
Rotational constants in cm-1:             0.269019             0.127864             0.090211 
Rotational constants in MHz :          8064.976919          3833.276714          2704.451588 

Dipole components along the rotational axes: 
x,y,z [a.u.] :    -2.134789    -0.000020    -0.000020 
x,y,z [Debye]:    -5.426202    -0.000051    -0.000050 

 

Dipole moment calculation done in   0.0 sec 

Maximum memory used throughout the entire PROP-calculation: 9.0 MB
[psid01:240369] 19 more processes have sent help message help-mpi-btl-openib.txt / ib port not selected
[psid01:240369] Set MCA parameter "orte_base_help_aggregate" to 0 to see all help / error messages
[psid01:240369] 19 more processes have sent help message help-mpi-btl-openib.txt / error in device init
--------------------------------------------------------------------------
By default, for Open MPI 4.0 and later, infiniband ports on a device
are not used by default.  The intent is to use UCX for these devices.
You can override this policy by setting the btl_openib_allow_ib MCA parameter
to true.

  Local host:              psid01
  Local adapter:           mlx5_0
  Local port:              1

--------------------------------------------------------------------------
--------------------------------------------------------------------------
WARNING: There was an error initializing an OpenFabrics device.

  Local host:   psid01
  Local device: mlx5_0
--------------------------------------------------------------------------
[psid01:240434] 19 more processes have sent help message help-mpi-btl-openib.txt / ib port not selected
[psid01:240434] Set MCA parameter "orte_base_help_aggregate" to 0 to see all help / error messages
[psid01:240434] 19 more processes have sent help message help-mpi-btl-openib.txt / error in device init

--------------------------------
SUGGESTED CITATIONS FOR THIS RUN
--------------------------------

Below you find a list of papers that are relevant to this ORCA run
We neither can nor want to force you to cite these papers, but we appreciate if you do
You receive ORCA, which is the product of decades of hard work by many enthusiastic individuals, for free
The only thing we kindly ask in return is that you cite our papers,
We deeply appreciate it, if you show your appreciation for ORCA by not just citing the generic ORCA reference.

Please note that relegating all ORCA citations to the supporting information does *not* help us.
SI sections are not indexed - citations you put there will not count into any citation statistics
But we need these citations in order to attract the funding resources that allow us to do what we are doing

Therefore, if you are a happy ORCA user, please consider citing a few of the papers listed below in the main body of your paper

In addition to the list printed below, the program has created the file EC.bibtex that contains the list in bibtex format
You can import this file easily into all common literature databanks and citation aid programs


List of essential papers. We consider these as the minimum necessary citations

  1. Neese,F.
     Software update: the ORCA program system, version 5.0
     WIRES Comput. Molec. Sci., 2022 12(1)e1606
     doi.org/10.1002/wcms.1606

List of papers to cite with high priority. The work reported in these papers was absolutely
necessary for this run to complete.
Our perspective: the developers of density functionals and basis sets usually get cited in chemistry papers
Good! But without the algorithms to do something with them, the functionals or basis sets would not do anything.
Hence, in our opinion, the algorithm design and method developments papers are equally worthy of getting cited

  1. Neese,F.
     An improvement of the resolution of the identity approximation for the formation of the Coulomb matrix
     J. Comp. Chem., 2003 24(14)1740-1747
     doi.org/10.1002/jcc.10318
  2. Neese,F.; Wennmohs,F.; Hansen,A.; Becker,U.
     Efficient, approximate and parallel Hartree-Fock and hybrid DFT calculations. A 'chain-of-spheres' algorithm for the Hartree-Fock exchange
     Chem. Phys., 2009 356(1-3)98-109
     doi.org/10.1016/j.chemphys.2008.10.036
  3. Helmich-Paris,B.; de Souza,B.; Neese,F.; Izsák,R.
     An improved chain of spheres for exchange algorithm
     J. Chem. Phys., 2021 155 104109
     doi.org/doi: 10.1063/5.0058766.
  4. Neese,F.
     The SHARK Integral Generation and Digestion System
     J. Comp. Chem., 2022  1-16
     doi.org/10.1002/jcc.26942

List of suggested additional citations. These are papers that are important in the 'surrounding' of 
of this run, or papers that preceded the highly important papers. If you like your results we are grateful for a citation.

  1. Izsak,R.; Neese,F.
     An overlap fitted chain of spheres exchange method
     J. Chem. Phys., 2011 135 144105
     doi.org/10.1063/1.3646921
  2. Izsak,R.; Hansen,A.; Neese,F.
     The resolution of identity and chain of spheres approximations for the LPNO-CCSD singles Fock term
     Molec. Phys., 2012 110 2413-2417
     doi.org/10.1080/00268976.2012.687466
  3. Neese,F.
     The ORCA program system
     WIRES Comput. Molec. Sci., 2012 2(1)73-78
     doi.org/10.1002/wcms.81
  4. Izsak,R.; Neese,F.; Klopper,W.
     Robust fitting techniques in the chain of spheres approximation to the Fock exchange: The role of the complementary space
     J. Chem. Phys., 2013 139 
     doi.org/10.1063/1.4819264
  5. Neese,F.
     Software update: the ORCA program system, version 4.0
     WIRES Comput. Molec. Sci., 2018 8(1)1-6
     doi.org/10.1002/wcms.1327
  6. Neese,F.; Wennmohs,F.; Becker,U.; Riplinger,C.
     The ORCA quantum chemistry program package
     J. Chem. Phys., 2020 152 Art. No. L224108
     doi.org/10.1063/5.0004608

List of optional additional citations

  1. Neese,F.
     Approximate second-order SCF convergence for spin unrestricted wavefunctions
     Chem. Phys. Lett., 2000 325(1-3)93-98
     doi.org/10.1016/s0009-2614(00)00662-x

Timings for individual modules:

Sum of individual times          ...        7.888 sec (=   0.131 min)
Startup calculation              ...        1.204 sec (=   0.020 min)  15.3 %
SCF iterations                   ...        6.045 sec (=   0.101 min)  76.6 %
Property calculations            ...        0.639 sec (=   0.011 min)   8.1 %
                             ****ORCA TERMINATED NORMALLY****
TOTAL RUN TIME: 0 days 0 hours 0 minutes 8 seconds 716 msec
