
                                 *****************
                                 * O   R   C   A *
                                 *****************

                                            #,                                       
                                            ###                                      
                                            ####                                     
                                            #####                                    
                                            ######                                   
                                           ########,                                 
                                     ,,################,,,,,                         
                               ,,#################################,,                 
                          ,,##########################################,,             
                       ,#########################################, ''#####,          
                    ,#############################################,,   '####,        
                  ,##################################################,,,,####,       
                ,###########''''           ''''###############################       
              ,#####''   ,,,,##########,,,,          '''####'''          '####       
            ,##' ,,,,###########################,,,                        '##       
           ' ,,###''''                  '''############,,,                           
         ,,##''                                '''############,,,,        ,,,,,,###''
      ,#''                                            '''#######################'''  
     '                                                          ''''####''''         
             ,#######,   #######,   ,#######,      ##                                
            ,#'     '#,  ##    ##  ,#'     '#,    #''#        ,####,   ,####,        
            ##       ##  ##   ,#'  ##            #'  '#       #'       #'  '#        
            ##       ##  #######   ##           ,######,      #####,   #    #        
            '#,     ,#'  ##    ##  '#,     ,#' ,#      #,     #,   #   #,  ,#        
             '#######'   ##     ##  '#######'  #'      '#     '####' # '####'        



                #########################################################
                #                        -***-                          #
                #          Department of theory and spectroscopy        #
                #                                                       #
                #                      Frank Neese                      #
                #                                                       #
                #     Directorship, Architecture, Infrastructure        #
                #                    SHARK, DRIVERS                     #
                #        Core code/Algorithms in most modules           #
                #                                                       #
                #        Max Planck Institute fuer Kohlenforschung      #
                #                Kaiser Wilhelm Platz 1                 #
                #                 D-45470 Muelheim/Ruhr                 #
                #                      Germany                          #
                #                                                       #
                #                  All rights reserved                  #
                #                        -***-                          #
                #########################################################


                         Program Version 6.0.1  -  RELEASE   -


 With contributions from (in alphabetic order):
[Max-Planck-Institut fuer Kohlenforschung]                               
  Daniel Aravena         : Magnetic Suceptibility                        
  Michael Atanasov       : Ab Initio Ligand Field Theory (pilot matlab implementation)
  Alexander A. Auer      : GIAO ZORA, VPT2 properties, NMR spectrum      
  Ute Becker             : All parallelization in ORCA, NUMFREQ, NUMCALC 
  Giovanni Bistoni       : ED, misc. LED, open-shell LED, HFLD           
  Martin Brehm           : Molecular dynamics                            
  Dmytro Bykov           : pre 5.0 version of the SCF Hessian            
  Marcos Casanova-Páez   : Triplet and SCS-CIS(D). UHF-(DLPNO)-IP/EA/STEOM-CCSD. UHF-CVS-IP/STEOM-CCSD   
  Vijay G. Chilkuri      : MRCI spin determinant printing, contributions to CSF-ICE 
  Pauline Colinet        : FMM embedding                                 
  Dipayan Datta          : RHF DLPNO-CCSD density                        
  Achintya Kumar Dutta   : EOM-CC, STEOM-CC                              
  Nicolas Foglia         : Exact transition moments, OPA infrastructure, MCD improvements    
  Dmitry Ganyushin       : Spin-Orbit,Spin-Spin,Magnetic field MRCI      
  Miquel Garcia-Rates    : C-PCM and meta-GGA Hessian, CCSD/C-PCM, Gaussian charge scheme 
  Tiago L. C. Gouveia    : GS-ROHF, GS-ROCIS                             
  Yang Guo               : DLPNO-NEVPT2, F12-NEVPT2, CIM, IAO-localization        
  Andreas Hansen         : Spin unrestricted coupled pair/coupled cluster methods 
  Ingolf Harden          : AUTO-CI MPn and infrastructure                
  Benjamin Helmich-Paris : MC-RPA, TRAH-(SCF,CASSCF), AVAS, COSX integrals, SCF dyn. polar. 
  Lee Huntington         : MR-EOM, pCC                                   
  Robert Izsak           : Overlap fitted RIJCOSX, COSX-SCS-MP3, EOM     
  Riya Kayal             : Wick's Theorem for AUTO-CI, AUTO-CI UHF-CCSDT 
  Emily Kempfer          : AUTO-CI, RHF CISDT and CCSDT                  
  Christian Kollmar      : KDIIS, OOCD, Brueckner-CCSD(T), CCSD density, CASPT2, CASPT2-K, improved NEVPT2 
  Axel Koslowski         : Symmetry handling                             
  Simone Kossmann        : meta-GGA functionals, TD-DFT gradient, OOMP2, (MP2 Hessian; deprecated post 5.0) 
  Lucas Lang             : DCDCAS                                        
  Marvin Lechner         : AUTO-CI (C++ implementation), FIC-MRCC        
  Spencer Leger          : CASSCF response                               
  Dagmar Lenk            : GEPOL surface, SMD, ORCA-2-JSON               
  Dimitrios Liakos       : Extrapolation schemes; Compound Job, initial MDCI parallelization 
  Dimitrios Manganas     : Further ROCIS development; embedding schemes. LFT, Crystal Embedding 
  Dimitrios Pantazis     : SARC Basis sets                               
  Anastasios Papadopoulos: AUTO-CI, single reference methods and gradients 
  Taras Petrenko         : pre 6.0 DFT Hessian and TD-DFT gradient, (ASA, deprecated), ECA, 1-Electron XAS/XES, NRVS 
  Peter Pinski           : DLPNO-MP2, DLPNO-MP2 Gradient                 
  Christoph Reimann      : Effective Core Potentials                     
  Marius Retegan         : Local ZFS, SOC                                
  Christoph Riplinger    : Optimizer, TS searches, QM/MM, DLPNO-CCSD(T), (RO)-DLPNO pert. Triples 
  Michael Roemelt        : Original ROCIS implementation                 
  Masaaki Saitow         : Open-shell DLPNO-CCSD energy and density      
  Barbara Sandhoefer     : DKH picture change effects                    
  Kantharuban Sivalingam : CASSCF convergence/infrastructure, NEVPT2 and variants, FIC-MRCI 
  Bernardo de Souza      : ESD, SOC TD-DFT                               
  Georgi L. Stoychev     : AutoAux, RI-MP2 NMR, DLPNO-MP2 response, X2C  
  Van Anh Tran           : RI-MP2 g-tensors                              
  Willem Van den Heuvel  : Paramagnetic NMR                              
  Zikuan Wang            : NOTCH, Electric field optimization            
  Frank Wennmohs         : Technical directorship and infrastructure     
  Hang Xu                : AUTO-CI-Response properties                   
                                                                         
[FACCTs GmbH]                                                            
  Markus Bursch, Miquel Garcia-Rates, Christoph Riplinger, Bernardo de Souza, Georgi L. Stoychev 
                                                                 
  APM, Basis sets (HGBS, AHGBS, def-TZVP (Ac-Lr), def2-XVPD (La-Lu)), CI-OPT, improved COSX, DLPNO-Multilevel,           
  DOCKER, DRACO, updates on ESD, GOAT, IRC, LR-CPCM, MBIS, meta-GGA TD-DFT gradient, ML-optimized integration grids, 
  MM, NACMEs, nearIR, NEB, NEB-TS, NL-DFT gradient (VV10), 2- and 3-layer-ONIOM, interface openCOSMO-RS, QMMM,   
  Crystal-QMMM, SF, symmetry and pop. for TD-DFT, r2SCAN hybrids, SOLVATOR                                   
                                                                         
[Other institutions]                                                     
  V. Asgeirsson          : NEB                                           
  Christoph Bannwarth    : sTDA-DFT, sTD-DFT, PBEh-3c, B97-3c, D3        
  Sebastian Ehlert       : rSCAN, r2SCAN, r2SCAN-3c, D4, dhf basis sets  
  Marvin Friede          : D4 for Fr, Ra, Ac-Lr                          
  Lars Goerigk           : TD-DFT with DH, B97 family of functionals     
  Stefan Grimme          : VdW corrections, initial TS optimization, DFT functionals, gCP, sTDA/sTD-DF 
  Waldemar Hujo          : DFT-NL                                        
  H. Jonsson             : NEB                                           
  Holger Kruse           : gCP                                           
  Marcel Mueller         : wB97X-3c, vDZP basis set                      
  Hagen Neugebauer       : wr2SCAN                                       
  Tobias Risthaus        : range-separated hybrid DFT                    
  Lukas Wittmann         : regularized MP2, r2SCAN double-hybrids, wr2SCAN        
                                                                         
We gratefully acknowledge several colleagues who have allowed us to      
interface, adapt or use parts of their codes:                            
  Ed Valeev, F. Pavosevic, A. Kumar             : LibInt (2-el integral package), F12 methods 
  Garnet Chan, S. Sharma, J. Yang, R. Olivares  : DMRG                   
  Ulf Ekstrom                                   : XCFun DFT Library      
  Mihaly Kallay                                 : mrcc  (arbitrary order and MRCC methods)
  Frank Weinhold                                : gennbo (NPA and NBO analysis)           
  Simon Mueller                                 : openCOSMO-RS                            
  Christopher J. Cramer and Donald G. Truhlar   : smd solvation model                     
  S Lehtola, MJT Oliveira, MAL Marques          : LibXC Library                           
  Liviu Ungur et al                             : ANISO software                          


 Your calculation uses the libint2 library for the computation of 2-el integrals
 For citations please refer to: http://libint.valeyev.net

 Your ORCA version has been built with support for libXC version: 6.2.2
 For citations please refer to: https://libxc.gitlab.io

 This ORCA versions uses:
   CBLAS   interface :  Fast vector & matrix operations
   LAPACKE interface :  Fast linear algebra routines
   SCALAPACK package :  Parallel linear algebra routines
   Shared memory     :  Shared parallel matrices
   BLAS/LAPACK       :  OpenBLAS 0.3.27  USE64BITINT DYNAMIC_ARCH NO_AFFINITY SkylakeX SINGLE_THREADED
        Core in use  :  SkylakeX
   Copyright (c) 2011-2014, The OpenBLAS Project


NOTE: MaxCore=5000 MB was set to SCF,MP2,MDCI,CIPSI,MRCI and CIS
      => If you want to overwrite this, your respective input block should be placed after the MaxCore statement
Warning: RI is on but no J-basis has been assigned. Assigning Def2/J (nothing to worry about!)
================================================================================

----- Orbital basis set information -----
Your calculation utilizes the basis: def2-TZVP
   F. Weigend and R. Ahlrichs, Phys. Chem. Chem. Phys. 7, 3297 (2005).

----- AuxJ basis set information -----
Your calculation utilizes the auxiliary basis: def2/J
   F. Weigend, Phys. Chem. Chem. Phys. 8, 1057 (2006).

================================================================================
                                        WARNINGS
                       Please study these warnings very carefully!
================================================================================


WARNING: Geometry Optimization
  ===> : Switching off AutoStart
         For restart on a previous wavefunction, please use MOREAD

================================================================================
                                       INPUT FILE
================================================================================
NAME = honokiol2-opt_EC.inp
|  1> ! OPT B3LYP def2-TZVP TightSCF
|  2> 
|  3> %maxcore 5000
|  4> 
|  5> %pal
|  6> nprocs 30
|  7> end
|  8> 
|  9> * xyz 0 1
| 10> O           1.40394536236766      1.71265086054547      2.41382496343717
| 11>   O          -3.83321847192471     -1.82500349696993      2.35174490201986
| 12>   C           1.16399636020894      0.15955464868920      0.55666050161241
| 13>   C          -0.15290603109967     -0.35333915611507      1.01886559625642
| 14>   C          -2.51317832988485     -0.83560416138215      0.56660654625799
| 15>   C          -1.26676983852425     -0.34911594183167      0.17406978999539
| 16>   C           2.98744847952069      0.06988452126101     -1.07723087989819
| 17>   C           1.73747751416792     -0.33723720304261     -0.61711018104794
| 18>   C           1.87423469411898      1.13702132981886      1.27882773416336
| 19>   C          -0.31570717830351     -0.88770398481838      2.30089923544985
| 20>   C          -2.63637248272007     -1.36462687500533      1.85833866439033
| 21>   C          -3.70568397473616     -0.75626447658513     -0.36608612559490
| 22>   C           3.56938324679270     -0.50714909441101     -2.35395724800878
| 23>   C           3.67817704593287      1.01848006350993     -0.32347861158632
| 24>   C          -1.53912630466053     -1.39462462148548      2.71298164111527
| 25>   C           3.12881865403629      1.54884103487726      0.83426426195853
| 26>   C          -4.31020913734609     -2.09634865521682     -0.69523156597163
| 27>   C           2.83082875742748     -0.07479385458362     -3.59116519090887
| 28>   C          -5.58578578539434     -2.42733867036196     -0.51289691770483
| 29>   C           2.28171353132186     -0.89331904020005     -4.48098510636964
| 30>   H          -1.16641914323311      0.07467533195123     -0.81875685361673
| 31>   H           1.19018624469054     -1.08975313724116     -1.17439594548872
| 32>   H           0.52759667757493     -0.92094260607090      2.97894961221508
| 33>   H          -4.47881981321638     -0.10774577016177      0.05981107192748
| 34>   H          -3.37642707210039     -0.28067697246573     -1.29424733419251
| 35>   H           3.57973810074729     -1.60026272427748     -2.30666236935671
| 36>   H           4.61368621307688     -0.18682641781842     -2.43295188710070
| 37>   H           4.65837417861420      1.35187633612963     -0.64597834916141
| 38>   H          -1.65678356697302     -1.82447861023712      3.69945311570406
| 39>   H           3.65515036078652      2.30071745022616      1.40825797817405
| 40>   H          -3.62453582534693     -2.83350959990964     -1.10544444039156
| 41>   H           2.75047261188236      0.99976217377543     -3.73744825581044
| 42>   H           0.44185245175089      1.61624244512692      2.50692316259049
| 43>   H          -4.39753382998981     -2.11667037100236      1.61969015676610
| 44>   H          -5.96055055829128     -3.40890402558807     -0.77413616767786
| 45>   H          -6.30613515716538     -1.71867154765499     -0.11610353297016
| 46>   H           1.76336486154080     -0.51777755278348     -5.35466130923276
| 47>   H           2.33425689067462     -1.97135906034067     -4.36988909936325
| 48>   H          -5.16425865839553      2.56663299585035      4.23547698283221
| 49>   H          -4.23077069442860      1.07146301766924      5.89309643184704
| 50>   C          -4.66271924199479      1.69093195524065      3.82018131631111
| 51>   O          -2.55477971575207      1.31379601412417      4.71849651736824
| 52>   C          -2.41540178573838      1.94917212905984      3.53510894797928
| 53>   C          -3.91397205794698      0.86911137835734      4.87224940392221
| 54>   O          -3.61375460568297      2.13776474970511      2.94707679091828
| 55>   O          -1.37800238466255      2.30304209925413      3.06746589554026
| 56>   H          -5.36726217643843      1.09983789090688      3.23596793291158
| 57>   H          -3.95528756288356     -0.20132879431782      4.66993390818977
| 58> *
| 59> 
| 60>                          ****END OF INPUT****
================================================================================

                       *****************************
                       * Geometry Optimization Run *
                       *****************************

Geometry optimization settings:
Update method            Update   .... BFGS
Choice of coordinates    CoordSys .... (2022) Redundant Internals
Initial Hessian          InHess   .... Almloef's Model
Max. no of cycles        MaxIter  .... 144

Convergence Tolerances:
Energy Change            TolE     ....  5.0000e-06 Eh
Max. Gradient            TolMAXG  ....  3.0000e-04 Eh/bohr
RMS Gradient             TolRMSG  ....  1.0000e-04 Eh/bohr
Max. Displacement        TolMAXD  ....  4.0000e-03 bohr
RMS Displacement         TolRMSD  ....  2.0000e-03 bohr
Strict Convergence                .... False

------------------------------------------------------------------------------
                        ORCA OPTIMIZATION COORDINATE SETUP
------------------------------------------------------------------------------

The optimization will be done in redundant internal coordinates (2022)
Making redundant internal coordinates   ...  (2022 redundants) done
Evaluating the initial hessian          ...  (Almloef) done
Evaluating the coordinates              ...  done
Calculating the B-matrix                .... done
Calculating the G-matrix                .... done
Diagonalizing the G-matrix              .... done
Small eigenvalue found = 1.559e-03
Small eigenvalue found = 2.968e-03
Small eigenvalue found = 4.252e-03
Small eigenvalue found = 8.808e-03
Small eigenvalue found = 1.292e-02
Small eigenvalue found = 1.402e-02
Small eigenvalue found = 1.709e-02
Small eigenvalue found = 2.334e-02
The first mode is                       ....   98
The number of degrees of freedom        ....  138

    -----------------------------------------------------------------
                    Redundant Internal Coordinates


    -----------------------------------------------------------------
         Definition                    Initial Value    Approx d2E/dq
    -----------------------------------------------------------------
      1. B(C   3,C   2)                  1.4869         0.437635   
      2. B(C   5,C   4)                  1.3944         0.614828   
      3. B(C   5,C   3)                  1.3980         0.606712   
      4. B(C   7,C   6)                  1.3928         0.618407   
      5. B(C   7,C   2)                  1.3976         0.607486   
      6. B(C   8,C   2)                  1.4076         0.585626   
      7. B(C   8,O   0)                  1.3567         0.632327   
      8. B(C   9,C   3)                  1.3984         0.605701   
      9. B(C  10,C   4)                  1.4013         0.599413   
     10. B(C  10,O   1)                  1.3740         0.593506   
     11. B(C  11,C   4)                  1.5160         0.393279   
     12. B(C  12,C   6)                  1.5171         0.391679   
     13. B(C  13,C   6)                  1.3947         0.614187   
     14. B(C  14,C  10)                  1.3911         0.622191   
     15. B(C  14,C   9)                  1.3869         0.631916   
     16. B(C  15,C  13)                  1.3869         0.631991   
     17. B(C  15,C   8)                  1.3933         0.617326   
     18. B(C  16,C  11)                  1.5065         0.407223   
     19. B(C  17,C  12)                  1.5044         0.410484   
     20. B(C  18,C  16)                  1.3304         0.777799   
     21. B(C  19,C  17)                  1.3279         0.784932   
     22. B(H  20,C   5)                  1.0841         0.367927   
     23. B(H  21,C   7)                  1.0846         0.367304   
     24. B(H  22,C   9)                  1.0826         0.370026   
     25. B(H  23,C  11)                  1.0953         0.353144   
     26. B(H  24,C  11)                  1.0937         0.355300   
     27. B(H  25,C  12)                  1.0942         0.354606   
     28. B(H  26,C  12)                  1.0952         0.353315   
     29. B(H  27,C  13)                  1.0844         0.367571   
     30. B(H  28,C  14)                  1.0825         0.370199   
     31. B(H  29,C  15)                  1.0825         0.370156   
     32. B(H  30,C  16)                  1.0871         0.363931   
     33. B(H  31,C  17)                  1.0874         0.363502   
     34. B(H  32,O   0)                  0.9714         0.498662   
     35. B(H  33,O   1)                  0.9692         0.502603   
     36. B(H  34,C  18)                  1.0827         0.369934   
     37. B(H  35,C  18)                  1.0856         0.365949   
     38. B(H  36,C  19)                  1.0831         0.369394   
     39. B(H  37,C  19)                  1.0850         0.366745   
     40. B(C  40,H  38)                  1.0913         0.358427   
     41. B(C  42,O  41)                  1.3504         0.647264   
     42. B(C  43,O  41)                  1.4383         0.468566   
     43. B(C  43,C  40)                  1.5306         0.372697   
     44. B(C  43,H  39)                  1.0879         0.362944   
     45. B(O  44,C  42)                  1.3481         0.652694   
     46. B(O  44,C  40)                  1.4361         0.472469   
     47. B(O  45,H  32)                  2.0243         0.010422   
     48. B(O  45,C  42)                  1.1917         1.159513   
     49. B(H  46,C  40)                  1.0895         0.360721   
     50. B(H  47,O   1)                  2.8329         0.000534   
     51. B(H  47,C  43)                  1.0902         0.359869   
     52. A(C   8,O   0,H  32)          112.4195         0.368712   
     53. A(C  10,O   1,H  33)          109.6798         0.365221   
     54. A(C   3,C   2,C   8)          121.7978         0.403815   
     55. A(C   3,C   2,C   7)          120.1225         0.406437   
     56. A(C   7,C   2,C   8)          118.0768         0.428072   
     57. A(C   5,C   3,C   9)          117.5411         0.430569   
     58. A(C   2,C   3,C   9)          121.3242         0.406226   
     59. A(C   2,C   3,C   5)          121.1159         0.406345   
     60. A(C  10,C   4,C  11)          121.1802         0.397914   
     61. A(C   5,C   4,C  11)          120.7758         0.399695   
     62. A(C   5,C   4,C  10)          118.0217         0.430790   
     63. A(C   3,C   5,H  20)          118.7391         0.352899   
     64. A(C   3,C   5,C   4)          122.7543         0.431728   
     65. A(C   4,C   5,H  20)          118.4846         0.353694   
     66. A(C  12,C   6,C  13)          121.5702         0.399335   
     67. A(C   7,C   6,C  12)          120.7356         0.399816   
     68. A(C   7,C   6,C  13)          117.6940         0.433131   
     69. A(C   2,C   7,H  21)          118.1043         0.352874   
     70. A(C   2,C   7,C   6)          122.8051         0.432277   
     71. A(C   6,C   7,H  21)          119.0725         0.353940   
     72. A(O   0,C   8,C   2)          123.2924         0.428346   
     73. A(C   2,C   8,C  15)          119.7285         0.429307   
     74. A(O   0,C   8,C  15)          116.9782         0.432419   
     75. A(C   3,C   9,C  14)          120.9802         0.433731   
     76. A(C  14,C   9,H  22)          119.3288         0.355685   
     77. A(C   3,C   9,H  22)          119.6848         0.353140   
     78. A(O   1,C  10,C   4)          122.2833         0.425280   
     79. A(O   1,C  10,C  14)          117.3362         0.428131   
     80. A(C   4,C  10,C  14)          120.3390         0.431712   
     81. A(C   4,C  11,C  16)          113.7976         0.372033   
     82. A(H  23,C  11,H  24)          106.5606         0.289341   
     83. A(C  16,C  11,H  24)          108.7964         0.328230   
     84. A(C   4,C  11,H  24)          107.9432         0.326350   
     85. A(C  16,C  11,H  23)          109.1708         0.327900   
     86. A(C   4,C  11,H  23)          110.3039         0.326024   
     87. A(C   6,C  12,C  17)          113.2332         0.372283   
     88. A(H  25,C  12,H  26)          106.6361         0.289274   
     89. A(C   6,C  12,H  26)          108.3738         0.325831   
     90. A(C  17,C  12,H  25)          109.1059         0.328556   
     91. A(C   6,C  12,H  25)          110.3181         0.326027   
     92. A(C  17,C  12,H  26)          108.9509         0.328358   
     93. A(C   6,C  13,C  15)          121.0030         0.434827   
     94. A(C  15,C  13,H  27)          119.2574         0.355290   
     95. A(C   6,C  13,H  27)          119.7392         0.353574   
     96. A(C  10,C  14,H  28)          118.8617         0.354778   
     97. A(C   9,C  14,H  28)          120.7834         0.355713   
     98. A(C   9,C  14,C  10)          120.3541         0.435833   
     99. A(C  13,C  15,H  29)          121.0414         0.355713   
    100. A(C   8,C  15,H  29)          118.2895         0.354300   
    101. A(C   8,C  15,C  13)          120.6644         0.435226   
    102. A(C  11,C  16,C  18)          125.1772         0.419271   
    103. A(C  18,C  16,H  30)          119.1933         0.367473   
    104. A(C  11,C  16,H  30)          115.6277         0.329533   
    105. A(C  12,C  17,C  19)          125.2372         0.420552   
    106. A(C  19,C  17,H  31)          119.2360         0.367974   
    107. A(C  12,C  17,H  31)          115.5252         0.329903   
    108. A(H  34,C  18,H  35)          116.7649         0.292816   
    109. A(C  16,C  18,H  35)          121.5939         0.367822   
    110. A(C  16,C  18,H  34)          121.6268         0.368506   
    111. A(H  36,C  19,H  37)          116.7617         0.292849   
    112. A(C  17,C  19,H  37)          121.5879         0.368536   
    113. A(C  17,C  19,H  36)          121.6499         0.368992   
    114. A(O   0,H  32,O  45)          152.0400         0.184194   
    115. A(H  38,C  40,C  43)          113.2097         0.323946   
    116. A(O  44,C  40,H  46)          108.3693         0.335220   
    117. A(H  38,C  40,H  46)          110.0121         0.290705   
    118. A(C  43,C  40,H  46)          113.1781         0.324285   
    119. A(C  43,C  40,O  44)          103.1580         0.375796   
    120. A(H  38,C  40,O  44)          108.5055         0.334865   
    121. A(C  42,O  41,C  43)          109.6748         0.410683   
    122. A(O  44,C  42,O  45)          124.1330         0.484653   
    123. A(O  41,C  42,O  45)          124.9921         0.483905   
    124. A(O  41,C  42,O  44)          110.8745         0.435742   
    125. A(O  41,C  43,H  47)          108.6355         0.334627   
    126. A(C  40,C  43,H  47)          112.4017         0.324159   
    127. A(H  39,C  43,H  47)          110.2279         0.291170   
    128. A(C  40,C  43,O  41)          102.8728         0.375258   
    129. A(H  39,C  43,O  41)          108.5417         0.335100   
    130. A(H  39,C  43,C  40)          113.7455         0.324613   
    131. A(C  40,O  44,C  42)          109.9119         0.411898   
    132. A(H  32,O  45,C  42)          142.2351         0.222690   
    133. D(C   9,C   3,C   2,C   7)    124.7304         0.013072   
    134. D(C   5,C   3,C   2,C   7)    -53.6570         0.013072   
    135. D(C   9,C   3,C   2,C   8)    -54.6376         0.013072   
    136. D(C   5,C   3,C   2,C   8)    126.9750         0.013072   
    137. D(H  20,C   5,C   4,C  11)     -0.8451         0.026131   
    138. D(H  20,C   5,C   3,C   2)     -2.4953         0.025407   
    139. D(C   3,C   5,C   4,C  11)    177.4223         0.026131   
    140. D(C   3,C   5,C   4,C  10)     -0.8802         0.026131   
    141. D(H  20,C   5,C   3,C   9)    179.0583         0.025407   
    142. D(H  20,C   5,C   4,C  10)   -179.1476         0.026131   
    143. D(C   4,C   5,C   3,C   2)    179.2416         0.025407   
    144. D(C   4,C   5,C   3,C   9)      0.7951         0.025407   
    145. D(C   6,C   7,C   2,C   8)      1.6183         0.025476   
    146. D(H  21,C   7,C   2,C   3)      0.6640         0.025476   
    147. D(C   6,C   7,C   2,C   3)   -177.7729         0.025476   
    148. D(H  21,C   7,C   6,C  13)   -178.6902         0.026455   
    149. D(H  21,C   7,C   6,C  12)      1.1866         0.026455   
    150. D(C   2,C   7,C   6,C  12)    179.6091         0.026455   
    151. D(H  21,C   7,C   2,C   8)   -179.9448         0.025476   
    152. D(C   2,C   7,C   6,C  13)     -0.2677         0.026455   
    153. D(C  15,C   8,O   0,H  32)    160.9591         0.029421   
    154. D(C  15,C   8,C   2,C   7)     -1.8929         0.023584   
    155. D(O   0,C   8,C   2,C   7)    178.4742         0.023584   
    156. D(C  15,C   8,C   2,C   3)    177.4875         0.023584   
    157. D(O   0,C   8,C   2,C   3)     -2.1454         0.023584   
    158. D(C   2,C   8,O   0,H  32)    -19.3986         0.029421   
    159. D(H  22,C   9,C   3,C   5)    179.1525         0.025318   
    160. D(C  14,C   9,C   3,C   5)      0.0663         0.025318   
    161. D(H  22,C   9,C   3,C   2)      0.7095         0.025318   
    162. D(C  14,C   9,C   3,C   2)   -178.3767         0.025318   
    163. D(C   4,C  10,O   1,H  33)     26.6751         0.028340   
    164. D(C  14,C  10,C   4,C  11)   -178.1902         0.024766   
    165. D(C  14,C  10,C   4,C   5)      0.1051         0.024766   
    166. D(O   1,C  10,C   4,C  11)     -0.5948         0.024766   
    167. D(O   1,C  10,C   4,C   5)    177.7005         0.024766   
    168. D(C  14,C  10,O   1,H  33)   -155.6611         0.028340   
    169. D(H  24,C  11,C   4,C   5)     -0.1852         0.011497   
    170. D(H  23,C  11,C   4,C  10)     62.0065         0.011497   
    171. D(H  23,C  11,C   4,C   5)   -116.2420         0.011497   
    172. D(C  16,C  11,C   4,C  10)    -61.0758         0.011497   
    173. D(C  16,C  11,C   4,C   5)    120.6758         0.011497   
    174. D(H  26,C  12,C   6,C   7)   -170.2721         0.011408   
    175. D(H  25,C  12,C   6,C  13)    126.0022         0.011408   
    176. D(H  25,C  12,C   6,C   7)    -53.8698         0.011408   
    177. D(C  17,C  12,C   6,C  13)   -111.3968         0.011408   
    178. D(C  17,C  12,C   6,C   7)     68.7312         0.011408   
    179. D(H  27,C  13,C   6,C  12)     -0.4715         0.026074   
    180. D(H  27,C  13,C   6,C   7)    179.4042         0.026074   
    181. D(C  15,C  13,C   6,C  12)    179.2998         0.026074   
    182. D(C  15,C  13,C   6,C   7)     -0.8245         0.026074   
    183. D(H  28,C  14,C  10,C   4)   -178.9361         0.026799   
    184. D(H  28,C  14,C  10,O   1)      3.3522         0.026799   
    185. D(C   9,C  14,C  10,C   4)      0.7228         0.026799   
    186. D(C   9,C  14,C  10,O   1)   -176.9889         0.026799   
    187. D(H  28,C  14,C   9,H  22)     -0.2500         0.027698   
    188. D(H  28,C  14,C   9,C   3)    178.8395         0.027698   
    189. D(C  10,C  14,C   9,H  22)   -179.9023         0.027698   
    190. D(C  10,C  14,C   9,C   3)     -0.8128         0.027698   
    191. D(C   8,C  15,C  13,C   6)      0.5218         0.027705   
    192. D(H  29,C  15,C   8,C   2)   -179.9068         0.026357   
    193. D(H  29,C  15,C   8,O   0)     -0.2512         0.026357   
    194. D(C  13,C  15,C   8,C   2)      0.8756         0.026357   
    195. D(C  13,C  15,C   8,O   0)   -179.4687         0.026357   
    196. D(H  29,C  15,C  13,H  27)      1.0983         0.027705   
    197. D(H  29,C  15,C  13,C   6)   -178.6740         0.027705   
    198. D(C   8,C  15,C  13,H  27)   -179.7058         0.027705   
    199. D(H  30,C  16,C  11,H  23)   -178.6298         0.012288   
    200. D(H  30,C  16,C  11,C   4)    -54.9308         0.012288   
    201. D(C  18,C  16,C  11,H  24)   -115.0431         0.012288   
    202. D(C  18,C  16,C  11,H  23)      0.8755         0.012288   
    203. D(C  18,C  16,C  11,C   4)    124.5746         0.012288   
    204. D(H  31,C  17,C  12,H  25)    179.4986         0.012478   
    205. D(H  31,C  17,C  12,C   6)     56.2271         0.012478   
    206. D(C  19,C  17,C  12,H  26)    116.0212         0.012478   
    207. D(C  19,C  17,C  12,H  25)     -0.0372         0.012478   
    208. D(C  19,C  17,C  12,C   6)   -123.3086         0.012478   
    209. D(H  35,C  18,C  16,H  30)   -179.3284         0.043458   
    210. D(H  35,C  18,C  16,C  11)      1.1825         0.043458   
    211. D(H  34,C  18,C  16,H  30)     -0.7529         0.043458   
    212. D(H  34,C  18,C  16,C  11)    179.7579         0.043458   
    213. D(H  37,C  19,C  17,H  31)   -179.6647         0.044343   
    214. D(H  37,C  19,C  17,C  12)     -0.1447         0.044343   
    215. D(H  36,C  19,C  17,H  31)      0.5907         0.044343   
    216. D(H  36,C  19,C  17,C  12)   -179.8893         0.044343   
    217. D(O  45,H  32,O   0,C   8)   -143.9352         0.273520   
    218. D(O  45,C  42,O  41,C  43)   -171.6969         0.030941   
    219. D(O  44,C  42,O  41,C  43)      8.5241         0.030941   
    220. D(H  47,C  43,O  41,C  42)    102.6695         0.017305   
    221. D(H  39,C  43,O  41,C  42)   -137.4648         0.017305   
    222. D(O  41,C  43,C  40,H  46)    135.0088         0.011094   
    223. D(O  41,C  43,C  40,O  44)     18.1276         0.011094   
    224. D(O  41,C  43,C  40,H  38)    -98.9308         0.011094   
    225. D(H  39,C  43,C  40,H  46)   -107.8041         0.011094   
    226. D(C  40,C  43,O  41,C  42)    -16.6462         0.017305   
    227. D(H  39,C  43,C  40,O  44)    135.3146         0.011094   
    228. D(H  39,C  43,C  40,H  38)     18.2562         0.011094   
    229. D(C  40,O  44,C  42,O  45)   -175.4048         0.031506   
    230. D(C  40,O  44,C  42,O  41)      4.3766         0.031506   
    231. D(C  42,O  44,C  40,H  46)   -134.5045         0.017599   
    232. D(C  42,O  44,C  40,C  43)    -14.2706         0.017599   
    233. D(C  42,O  44,C  40,H  38)    106.0632         0.017599   
    234. D(H  32,O  45,C  42,O  44)   -123.8324         0.115613   
    235. D(H  32,O  45,C  42,O  41)     56.4170         0.115613   
    236. D(C  42,O  45,H  32,O   0)   -143.5723         0.001550   
    -----------------------------------------------------------------

Number of atoms                         .... 48
Number of degrees of freedom            .... 236


         *************************************************************
         *                GEOMETRY OPTIMIZATION CYCLE   1            *
         *************************************************************
---------------------------------
CARTESIAN COORDINATES (ANGSTROEM)
---------------------------------
  O      1.403945    1.712651    2.413825
  O     -3.833218   -1.825003    2.351745
  C      1.163996    0.159555    0.556661
  C     -0.152906   -0.353339    1.018866
  C     -2.513178   -0.835604    0.566607
  C     -1.266770   -0.349116    0.174070
  C      2.987448    0.069885   -1.077231
  C      1.737478   -0.337237   -0.617110
  C      1.874235    1.137021    1.278828
  C     -0.315707   -0.887704    2.300899
  C     -2.636372   -1.364627    1.858339
  C     -3.705684   -0.756264   -0.366086
  C      3.569383   -0.507149   -2.353957
  C      3.678177    1.018480   -0.323479
  C     -1.539126   -1.394625    2.712982
  C      3.128819    1.548841    0.834264
  C     -4.310209   -2.096349   -0.695232
  C      2.830829   -0.074794   -3.591165
  C     -5.585786   -2.427339   -0.512897
  C      2.281714   -0.893319   -4.480985
  H     -1.166419    0.074675   -0.818757
  H      1.190186   -1.089753   -1.174396
  H      0.527597   -0.920943    2.978950
  H     -4.478820   -0.107746    0.059811
  H     -3.376427   -0.280677   -1.294247
  H      3.579738   -1.600263   -2.306662
  H      4.613686   -0.186826   -2.432952
  H      4.658374    1.351876   -0.645978
  H     -1.656784   -1.824479    3.699453
  H      3.655150    2.300717    1.408258
  H     -3.624536   -2.833510   -1.105444
  H      2.750473    0.999762   -3.737448
  H      0.441852    1.616242    2.506923
  H     -4.397534   -2.116670    1.619690
  H     -5.960551   -3.408904   -0.774136
  H     -6.306135   -1.718672   -0.116104
  H      1.763365   -0.517778   -5.354661
  H      2.334257   -1.971359   -4.369889
  H     -5.164259    2.566633    4.235477
  H     -4.230771    1.071463    5.893096
  C     -4.662719    1.690932    3.820181
  O     -2.554780    1.313796    4.718497
  C     -2.415402    1.949172    3.535109
  C     -3.913972    0.869111    4.872249
  O     -3.613755    2.137765    2.947077
  O     -1.378002    2.303042    3.067466
  H     -5.367262    1.099838    3.235968
  H     -3.955288   -0.201329    4.669934

----------------------------
CARTESIAN COORDINATES (A.U.)
----------------------------
  NO LB      ZA    FRAG     MASS         X           Y           Z
   0 O     8.0000    0    15.999    2.653072    3.236441    4.561468
   1 O     8.0000    0    15.999   -7.243733   -3.448757    4.444154
   2 C     6.0000    0    12.011    2.199634    0.301515    1.051936
   3 C     6.0000    0    12.011   -0.288951   -0.667714    1.925377
   4 C     6.0000    0    12.011   -4.749219   -1.579063    1.070731
   5 C     6.0000    0    12.011   -2.393848   -0.659734    0.328944
   6 C     6.0000    0    12.011    5.645459    0.132063   -2.035671
   7 C     6.0000    0    12.011    3.283357   -0.637286   -1.166169
   8 C     6.0000    0    12.011    3.541790    2.148659    2.416634
   9 C     6.0000    0    12.011   -0.596600   -1.677517    4.348069
  10 C     6.0000    0    12.011   -4.982022   -2.578771    3.511751
  11 C     6.0000    0    12.011   -7.002728   -1.429133   -0.691803
  12 C     6.0000    0    12.011    6.745157   -0.958373   -4.448335
  13 C     6.0000    0    12.011    6.950747    1.924648   -0.611286
  14 C     6.0000    0    12.011   -2.908527   -2.635459    5.126792
  15 C     6.0000    0    12.011    5.912610    2.926885    1.576531
  16 C     6.0000    0    12.011   -8.145115   -3.961525   -1.313797
  17 C     6.0000    0    12.011    5.349491   -0.141340   -6.786319
  18 C     6.0000    0    12.011  -10.555605   -4.587005   -0.969235
  19 C     6.0000    0    12.011    4.311814   -1.688128   -8.467835
  20 H     1.0000    0     1.008   -2.204213    0.141116   -1.547226
  21 H     1.0000    0     1.008    2.249126   -2.059335   -2.219287
  22 H     1.0000    0     1.008    0.997013   -1.740329    5.629399
  23 H     1.0000    0     1.008   -8.463743   -0.203610    0.113027
  24 H     1.0000    0     1.008   -6.380522   -0.530403   -2.445773
  25 H     1.0000    0     1.008    6.764725   -3.024058   -4.358960
  26 H     1.0000    0     1.008    8.718603   -0.353051   -4.597613
  27 H     1.0000    0     1.008    8.803051    2.554676   -1.220722
  28 H     1.0000    0     1.008   -3.130867   -3.447765    6.990953
  29 H     1.0000    0     1.008    6.907233    4.347726    2.661222
  30 H     1.0000    0     1.008   -6.849380   -5.354557   -2.088987
  31 H     1.0000    0     1.008    5.197640    1.889277   -7.062754
  32 H     1.0000    0     1.008    0.834980    3.054256    4.737398
  33 H     1.0000    0     1.008   -8.310135   -3.999927    3.060771
  34 H     1.0000    0     1.008  -11.263808   -6.441895   -1.462905
  35 H     1.0000    0     1.008  -11.916868   -3.247819   -0.219404
  36 H     1.0000    0     1.008    3.332277   -0.978458  -10.118843
  37 H     1.0000    0     1.008    4.411106   -3.725329   -8.257894
  38 H     1.0000    0     1.008   -9.759035    4.850233    8.003892
  39 H     1.0000    0     1.008   -7.994998    2.024772   11.136338
  40 C     6.0000    0    12.011   -8.811262    3.195398    7.219096
  41 O     8.0000    0    15.999   -4.827834    2.482715    8.916666
  42 C     6.0000    0    12.011   -4.564448    3.683402    6.680388
  43 C     6.0000    0    12.011   -7.396335    1.642382    9.207217
  44 O     8.0000    0    15.999   -6.829007    4.039790    5.569168
  45 O     8.0000    0    15.999   -2.604047    4.352119    5.796670
  46 H     1.0000    0     1.008  -10.142656    2.078392    6.115093
  47 H     1.0000    0     1.008   -7.474410   -0.380456    8.824896

--------------------------------
INTERNAL COORDINATES (ANGSTROEM)
--------------------------------
 O      0   0   0     0.000000000000     0.00000000     0.00000000
 O      1   0   0     6.320343132655     0.00000000     0.00000000
 C      1   2   0     2.432846728667    63.47778470     0.00000000
 C      3   1   2     1.486918125774    94.02908532     0.49705816
 C      2   1   3     2.430665746472    47.88454648   325.45250674
 C      5   2   1     1.394378004744   146.53405000    23.97610441
 C      3   1   2     2.450024369216   117.32531200   181.47770478
 C      7   3   1     1.392798108175    28.65176144   181.82273007
 C      1   2   3     1.356738782029    92.38032033   358.87490390
 C      4   3   1     1.398449225288   121.32421199   304.36007746
 C      2   1   3     1.373985688156    25.06752778   357.72846327
 C      5   2   1     1.516007954700    92.63378084   207.14936818
 C      7   3   1     1.517117690229   149.38632173   181.16291425
 C      7   3   1     1.394661943705    89.04250574     1.58562895
 C     10   4   3     1.386915570492   120.98021264   181.62328395
 C     14   7   3     1.386883543756   121.00303545   359.04711905
 C     12   5   2     1.506523481054   113.79757657   298.63968341
 C     13   7   3     1.504352778155   113.23322083    69.09930400
 C     17  12   5     1.330374420654   125.17723415   124.57458145
 C     18  13   7     1.327889488241   125.23724044   236.69137420
 H      6   5   2     1.084146692125   118.48458550   182.84507665
 H      8   7   3     1.084608403119   119.07253237   181.57756230
 H     10   4   3     1.082598038384   119.68476523     0.70951589
 H     12   5   2     1.095309983603   110.30385368    61.72195802
 H     12   5   2     1.093652966509   107.94315701   177.77871108
 H     13   7   3     1.094185284286   110.31805699   306.49824324
 H     13   7   3     1.095178275686   108.37377723   190.09598476
 H     14   7   3     1.084410242597   119.73921067   179.27584157
 H     15  10   4     1.082471086541   120.78336808   178.83946611
 H     16  14   7     1.082502653920   121.04137133   181.32596555
 H     17  12   5     1.087119474349   115.62766705   305.06920556
 H     18  13   7     1.087440344702   115.52520261    56.22714845
 H      1   2   3     0.971382842091    28.91877205   134.44659060
 H      2   1   3     0.969239670466   131.17005937   322.19094767
 H     19  17  12     1.082665750502   121.62676655   179.75792225
 H     19  17  12     1.085613788778   121.59393017     1.18250139
 H     20  18  13     1.083063645260   121.64991160   180.11067998
 H     20  18  13     1.085022309637   121.58793628   359.85527281
 H      2   1   3     4.960502556733    73.92326521   214.92339733
 H     39   2   1     2.419635361016    67.01840976   275.75183814
 C     39   2   1     1.091267423393    11.96467657   356.55262243
 O     40  39   2     2.060911449061    81.40964224    64.71126311
 C     42  40  39     1.350383336016   129.69656896   353.47140511
 C     40  39   2     1.087858546150    65.44416070    24.58906896
 O     43  42  40     1.348109222344   110.87454915   342.43875871
 O     43  42  40     1.191684311239   124.99205976   162.21781928
 H     41  39  45     1.089531191251   110.01206547   241.60292755
 H     44  40  39     1.090174616306   110.22787319   224.50503211

---------------------------
INTERNAL COORDINATES (A.U.)
---------------------------
 O      0   0   0     0.000000000000     0.00000000     0.00000000
 O      1   0   0    11.943717593127     0.00000000     0.00000000
 C      1   2   0     4.597414042986    63.47778470     0.00000000
 C      3   1   2     2.809868041277    94.02908532     0.49705816
 C      2   1   3     4.593292583935    47.88454648   325.45250674
 C      5   2   1     2.634992556130   146.53405000    23.97610441
 C      3   1   2     4.629875079251   117.32531200   181.47770478
 C      7   3   1     2.632006984294    28.65176144   181.82273007
 C      1   2   3     2.563864733306    92.38032033   358.87490390
 C      4   3   1     2.642686047989   121.32421199   304.36007746
 C      2   1   3     2.596456662543    25.06752778   357.72846327
 C      5   2   1     2.864839851229    92.63378084   207.14936818
 C      7   3   1     2.866936947459   149.38632173   181.16291425
 C      7   3   1     2.635529123004    89.04250574     1.58562895
 C     10   4   3     2.620890599102   120.98021264   181.62328395
 C     14   7   3     2.620830077341   121.00303545   359.04711905
 C     12   5   2     2.846916793515   113.79757657   298.63968341
 C     13   7   3     2.842814759517   113.23322083    69.09930400
 C     17  12   5     2.514043310610   125.17723415   124.57458145
 C     18  13   7     2.509347468888   125.23724044   236.69137420
 H      6   5   2     2.048740337113   118.48458550   182.84507665
 H      8   7   3     2.049612844445   119.07253237   181.57756230
 H     10   4   3     2.045813805667   119.68476523     0.70951589
 H     12   5   2     2.069835900760   110.30385368    61.72195802
 H     12   5   2     2.066704592252   107.94315701   177.77871108
 H     13   7   3     2.067710527066   110.31805699   306.49824324
 H     13   7   3     2.069587008867   108.37377723   190.09598476
 H     14   7   3     2.049238375328   119.73921067   179.27584157
 H     15  10   4     2.045573901451   120.78336808   178.83946611
 H     16  14   7     2.045633555151   121.04137133   181.32596555
 H     17  12   5     2.054358081371   115.62766705   305.06920556
 H     18  13   7     2.054964438465   115.52520261    56.22714845
 H      1   2   3     1.835647542741    28.91877205   134.44659060
 H      2   1   3     1.831597535312   131.17005937   322.19094767
 H     19  17  12     2.045941763026   121.62676655   179.75792225
 H     19  17  12     2.051512748000   121.59393017     1.18250139
 H     20  18  13     2.046693675148   121.64991160   180.11067998
 H     20  18  13     2.050395014408   121.58793628   359.85527281
 H      2   1   3     9.373991318841    73.92326521   214.92339733
 H     39   2   1     4.572448176271    67.01840976   275.75183814
 C     39   2   1     2.062196569083    11.96467657   356.55262243
 O     40  39   2     3.894558224988    81.40964224    64.71126311
 C     42  40  39     2.551854680881   129.69656896   353.47140511
 C     40  39   2     2.055754724669    65.44416070    24.58906896
 O     43  42  40     2.547557228844   110.87454915   342.43875871
 O     43  42  40     2.251956986332   124.99205976   162.21781928
 H     41  39  45     2.058915565829   110.01206547   241.60292755
 H     44  40  39     2.060131462971   110.22787319   224.50503211

---------------------
BASIS SET INFORMATION
---------------------
There are 3 groups of distinct atoms

 Group   1 Type O   : 11s6p2d1f contracted to 5s3p2d1f pattern {62111/411/11/1}
 Group   2 Type C   : 11s6p2d1f contracted to 5s3p2d1f pattern {62111/411/11/1}
 Group   3 Type H   : 5s1p contracted to 3s1p pattern {311/1}

Atom   0O    basis set group =>   1
Atom   1O    basis set group =>   1
Atom   2C    basis set group =>   2
Atom   3C    basis set group =>   2
Atom   4C    basis set group =>   2
Atom   5C    basis set group =>   2
Atom   6C    basis set group =>   2
Atom   7C    basis set group =>   2
Atom   8C    basis set group =>   2
Atom   9C    basis set group =>   2
Atom  10C    basis set group =>   2
Atom  11C    basis set group =>   2
Atom  12C    basis set group =>   2
Atom  13C    basis set group =>   2
Atom  14C    basis set group =>   2
Atom  15C    basis set group =>   2
Atom  16C    basis set group =>   2
Atom  17C    basis set group =>   2
Atom  18C    basis set group =>   2
Atom  19C    basis set group =>   2
Atom  20H    basis set group =>   3
Atom  21H    basis set group =>   3
Atom  22H    basis set group =>   3
Atom  23H    basis set group =>   3
Atom  24H    basis set group =>   3
Atom  25H    basis set group =>   3
Atom  26H    basis set group =>   3
Atom  27H    basis set group =>   3
Atom  28H    basis set group =>   3
Atom  29H    basis set group =>   3
Atom  30H    basis set group =>   3
Atom  31H    basis set group =>   3
Atom  32H    basis set group =>   3
Atom  33H    basis set group =>   3
Atom  34H    basis set group =>   3
Atom  35H    basis set group =>   3
Atom  36H    basis set group =>   3
Atom  37H    basis set group =>   3
Atom  38H    basis set group =>   3
Atom  39H    basis set group =>   3
Atom  40C    basis set group =>   2
Atom  41O    basis set group =>   1
Atom  42C    basis set group =>   2
Atom  43C    basis set group =>   2
Atom  44O    basis set group =>   1
Atom  45O    basis set group =>   1
Atom  46H    basis set group =>   3
Atom  47H    basis set group =>   3
---------------------------------
AUXILIARY/J BASIS SET INFORMATION
---------------------------------
There are 3 groups of distinct atoms

 Group   1 Type O   : 12s5p4d2f1g contracted to 6s4p3d1f1g pattern {711111/2111/211/2/1}
 Group   2 Type C   : 12s5p4d2f1g contracted to 6s4p3d1f1g pattern {711111/2111/211/2/1}
 Group   3 Type H   : 5s2p1d contracted to 3s1p1d pattern {311/2/1}

Atom   0O    basis set group =>   1
Atom   1O    basis set group =>   1
Atom   2C    basis set group =>   2
Atom   3C    basis set group =>   2
Atom   4C    basis set group =>   2
Atom   5C    basis set group =>   2
Atom   6C    basis set group =>   2
Atom   7C    basis set group =>   2
Atom   8C    basis set group =>   2
Atom   9C    basis set group =>   2
Atom  10C    basis set group =>   2
Atom  11C    basis set group =>   2
Atom  12C    basis set group =>   2
Atom  13C    basis set group =>   2
Atom  14C    basis set group =>   2
Atom  15C    basis set group =>   2
Atom  16C    basis set group =>   2
Atom  17C    basis set group =>   2
Atom  18C    basis set group =>   2
Atom  19C    basis set group =>   2
Atom  20H    basis set group =>   3
Atom  21H    basis set group =>   3
Atom  22H    basis set group =>   3
Atom  23H    basis set group =>   3
Atom  24H    basis set group =>   3
Atom  25H    basis set group =>   3
Atom  26H    basis set group =>   3
Atom  27H    basis set group =>   3
Atom  28H    basis set group =>   3
Atom  29H    basis set group =>   3
Atom  30H    basis set group =>   3
Atom  31H    basis set group =>   3
Atom  32H    basis set group =>   3
Atom  33H    basis set group =>   3
Atom  34H    basis set group =>   3
Atom  35H    basis set group =>   3
Atom  36H    basis set group =>   3
Atom  37H    basis set group =>   3
Atom  38H    basis set group =>   3
Atom  39H    basis set group =>   3
Atom  40C    basis set group =>   2
Atom  41O    basis set group =>   1
Atom  42C    basis set group =>   2
Atom  43C    basis set group =>   2
Atom  44O    basis set group =>   1
Atom  45O    basis set group =>   1
Atom  46H    basis set group =>   3
Atom  47H    basis set group =>   3


           ************************************************************
           *        Program running with 30 parallel MPI-processes    *
           *              working on a common directory               *
           ************************************************************
------------------------------------------------------------------------------
                             ORCA STARTUP CALCULATIONS
                           -- RI-GTO INTEGRALS CHOSEN --
------------------------------------------------------------------------------
------------------------------------------------------------------------------
                   ___                                                        
                  /   \      - P O W E R E D   B Y -                         
                 /     \                                                     
                 |  |  |   _    _      __       _____    __    __             
                 |  |  |  | |  | |    /  \     |  _  \  |  |  /  |          
                  \  \/   | |  | |   /    \    | | | |  |  | /  /          
                 / \  \   | |__| |  /  /\  \   | |_| |  |  |/  /          
                |  |  |   |  __  | /  /__\  \  |    /   |      \           
                |  |  |   | |  | | |   __   |  |    \   |  |\   \          
                \     /   | |  | | |  |  |  |  | |\  \  |  | \   \       
                 \___/    |_|  |_| |__|  |__|  |_| \__\ |__|  \__/        
                                                                              
                      - O R C A' S   B I G   F R I E N D -                    
                                      &                                       
                       - I N T E G R A L  F E E D E R -                       
                                                                              
 v1 FN, 2020, v2 2021, v3 2022-2024                                           
------------------------------------------------------------------------------


----------------------
SHARK INTEGRAL PACKAGE
----------------------

Number of atoms                             ...     48
Number of basis functions                   ...    938
Number of shells                            ...    374
Maximum angular momentum                    ...      3
Integral batch strategy                     ... SHARK/LIBINT Hybrid
RI-J (if used) integral strategy            ... SPLIT-RIJ (Revised 2003 algorithm where possible)
Printlevel                                  ...      1
Contraction scheme used                     ... SEGMENTED contraction
Prescreening option                         ... SCHWARTZ
   Thresh                                   ... 2.500e-11
   Tcut                                     ... 2.500e-12
   Tpresel                                  ... 2.500e-12 
Coulomb Range Separation                    ... NOT USED
Exchange Range Separation                   ... NOT USED
Multipole approximations                    ... NOT USED
Finite Nucleus Model                        ... NOT USED
CABS basis                                  ... NOT available
Auxiliary Coulomb fitting basis             ... AVAILABLE
   # of basis functions in Aux-J            ...   1516
   # of shells in Aux-J                     ...    500
   Maximum angular momentum in Aux-J        ...      4
Auxiliary J/K fitting basis                 ... NOT available
Auxiliary Correlation fitting basis         ... NOT available
Auxiliary 'external' fitting basis          ... NOT available

Checking pre-screening integrals            ... done (  0.0 sec) Dimension = 374
Check shell pair data                       ... done (  0.0 sec)
Shell pair information
Shell pair cut-off parameter TPreSel        ...   2.5e-12
Total number of shell pairs                 ...     70125
Shell pairs after pre-screening             ...     44212
Total number of primitive shell pairs       ...    213516
Primitive shell pairs kept                  ...     87529
          la=0 lb=0:  11749 shell pairs
          la=1 lb=0:  12984 shell pairs
          la=1 lb=1:   3610 shell pairs
          la=2 lb=0:   6143 shell pairs
          la=2 lb=1:   3461 shell pairs
          la=2 lb=2:    845 shell pairs
          la=3 lb=0:   2837 shell pairs
          la=3 lb=1:   1644 shell pairs
          la=3 lb=2:    750 shell pairs
          la=3 lb=3:    189 shell pairs

Calculating one electron integrals          ... done (  0.1 sec)
Calculating RI/J V-Matrix + Cholesky decomp.... done (  0.1 sec)
Calculating Nuclear repulsion               ... done (  0.0 sec) ENN=   2275.894989761071 Eh

Diagonalization of the overlap matrix:
Smallest eigenvalue                        ... 5.779e-06
Time for diagonalization                   ...    0.132 sec
Threshold for overlap eigenvalues          ... 1.000e-07
Number of eigenvalues below threshold      ... 0
Time for construction of square roots      ...    0.062 sec
Total time needed                          ...    0.200 sec

-------------------
DFT GRID GENERATION
-------------------

General Integration Accuracy     IntAcc      ... 4.388
Radial Grid Type                 RadialGrid  ... OptM3 with GC (2021)
Angular Grid (max. ang.)         AngularGrid ... 4 (Lebedev-302)
Angular grid pruning method      GridPruning ... 4 (adaptive)
Weight generation scheme         WeightScheme... mBecke (2022)
Basis function cutoff            BFCut       ... 1.0000e-11
Integration weight cutoff        WCut        ... 1.0000e-14
Partially contracted basis set               ... off
Rotationally invariant grid construction     ... off
Angular grids for H and He will be reduced by one unit

Total number of grid points                  ...   225562
Total number of batches                      ...     3550
Average number of points per batch           ...       63
Average number of grid points per atom       ...     4699

--------------------
COSX GRID GENERATION
--------------------

GRIDX 1
-------
General Integration Accuracy     IntAcc      ... 3.816
Radial Grid Type                 RadialGrid  ... OptM3 with GC (2021)
Angular Grid (max. ang.)         AngularGrid ... 1 (Lebedev-50)
Angular grid pruning method      GridPruning ... 4 (adaptive)
Weight generation scheme         WeightScheme... mBecke (2022)
Basis function cutoff            BFCut       ... 1.0000e-11
Integration weight cutoff        WCut        ... 1.0000e-14
Partially contracted basis set               ... on
Rotationally invariant grid construction     ... off
Angular grids for H and He will be reduced by one unit

Total number of grid points                  ...    28579
Total number of batches                      ...      254
Average number of points per batch           ...      112
Average number of grid points per atom       ...      595
UseSFitting                                  ... on

GRIDX 2
-------
General Integration Accuracy     IntAcc      ... 4.020
Radial Grid Type                 RadialGrid  ... OptM3 with GC (2021)
Angular Grid (max. ang.)         AngularGrid ... 2 (Lebedev-110)
Angular grid pruning method      GridPruning ... 4 (adaptive)
Weight generation scheme         WeightScheme... mBecke (2022)
Basis function cutoff            BFCut       ... 1.0000e-11
Integration weight cutoff        WCut        ... 1.0000e-14
Partially contracted basis set               ... on
Rotationally invariant grid construction     ... off
Angular grids for H and He will be reduced by one unit

Total number of grid points                  ...    61734
Total number of batches                      ...      511
Average number of points per batch           ...      120
Average number of grid points per atom       ...     1286
UseSFitting                                  ... on

GRIDX 3
-------
General Integration Accuracy     IntAcc      ... 4.338
Radial Grid Type                 RadialGrid  ... OptM3 with GC (2021)
Angular Grid (max. ang.)         AngularGrid ... 3 (Lebedev-194)
Angular grid pruning method      GridPruning ... 4 (adaptive)
Weight generation scheme         WeightScheme... mBecke (2022)
Basis function cutoff            BFCut       ... 1.0000e-11
Integration weight cutoff        WCut        ... 1.0000e-14
Partially contracted basis set               ... on
Rotationally invariant grid construction     ... off
Angular grids for H and He will be reduced by one unit

Total number of grid points                  ...   134840
Total number of batches                      ...     1079
Average number of points per batch           ...      124
Average number of grid points per atom       ...     2809
UseSFitting                                  ... on
Initializing property integral containers    ... done (  0.0 sec)

SHARK setup successfully completed in   3.1 seconds

Maximum memory used throughout the entire STARTUP-calculation: 96.6 MB


           ************************************************************
           *        Program running with 30 parallel MPI-processes    *
           *              working on a common directory               *
           ************************************************************
-------------------------------------------------------------------------------
                                 ORCA GUESS
                   Start orbitals & Density for SCF / CASSCF
-------------------------------------------------------------------------------

------------
SCF SETTINGS
------------
Hamiltonian:
 Density Functional     Method          .... DFT(GTOs)
 Exchange Functional    Exchange        .... B88
   X-Alpha parameter    XAlpha          ....  0.666667
   Becke's b parameter  XBeta           ....  0.004200
 Correlation Functional Correlation     .... LYP
 LDA part of GGA corr.  LDAOpt          .... VWN-5
 Gradients option       PostSCFGGA      .... off
 Hybrid DFT is turned on
   Fraction HF Exchange ScalHFX         ....  0.200000
   Scaling of DF-GGA-X  ScalDFX         ....  0.720000
   Scaling of DF-GGA-C  ScalDFC         ....  0.810000
   Scaling of DF-LDA-C  ScalLDAC        ....  1.000000
   Perturbative correction              ....  0.000000
   NL short-range parameter             ....  4.800000
 RI-approximation to the Coulomb term is turned on
   Number of AuxJ basis functions       .... 1516
   RIJ-COSX (HFX calculated with COS-X)).... on


General Settings:
 Integral files         IntName         .... honokiol2-opt_EC
 Hartree-Fock type      HFTyp           .... RHF
 Total Charge           Charge          ....    0
 Multiplicity           Mult            ....    1
 Number of Electrons    NEL             ....  188
 Basis Dimension        Dim             ....  938
 Nuclear Repulsion      ENuc            ....   2275.8949897611 Eh

Convergence Acceleration:
 AO-DIIS                CNVDIIS         .... on
   Start iteration      DIISMaxIt       ....    12
   Startup error        DIISStart       ....  0.200000
   # of expansion vecs  DIISMaxEq       ....     5
   Bias factor          DIISBfac        ....   1.050
   Max. coefficient     DIISMaxC        ....  10.000
 MO-DIIS                CNVKDIIS        .... off
 Trust-Rad. Augm. Hess. CNVTRAH         .... auto
   Auto Start mean grad. ratio tolernc. ....  1.125000
   Auto Start start iteration           ....    50
   Auto Start num. interpolation iter.  ....    10
   Max. Number of Micro iterations      ....    24
   Max. Number of Macro iterations      .... Maxiter - #DIIS iter
   Number of Davidson start vectors     ....     2
   Converg. threshold    (grad. norm)   ....   1.000e-05
   Grad. Scal. Fac. for Micro threshold ....   0.100
   Minimum threshold for Micro iter.    ....   1.000e-02
   NR start threshold (gradient norm)   ....   1.000e-04
   Initial trust radius                 ....   0.400
   Minimum AH scaling param. (alpha)    ....   1.000
   Maximum AH scaling param. (alpha)    .... 1000.000
   Quad. conv. algorithm                .... NR
   White noise on init. David. guess    .... on
   Maximum white noise                  ....   0.010
   Pseudo random numbers                .... off
   Inactive MOs                         .... canonical
   Orbital update algorithm             .... Taylor
   Preconditioner                       .... Diag
   Full preconditioner red. dimension   ....   250
 SOSCF                  CNVSOSCF        .... on
   Start iteration      SOSCFMaxIt      ....   150
   Startup grad/error   SOSCFStart      ....  0.003300
   Hessian update       SOSCFHessUp     .... L-BFGS
 Level Shifting         CNVShift        .... on
   Level shift para.    LevelShift      ....    0.2500
   Turn off err/grad.   ShiftErr        ....    0.0010
 Zerner damping         CNVZerner       .... off
 Static damping         CNVDamp         .... on
   Fraction old density DampFac         ....    0.7000
   Max. Damping (<1)    DampMax         ....    0.9800
   Min. Damping (>=0)   DampMin         ....    0.0000
   Turn off err/grad.   DampErr         ....    0.1000

SCF Procedure:
 Maximum # iterations   MaxIter         ....   125
 SCF integral mode      SCFMode         .... Direct
   Integral package                     .... SHARK and LIBINT hybrid scheme
 Reset frequency        DirectResetFreq ....    20
 Integral Threshold     Thresh          ....  2.500e-11 Eh
 Primitive CutOff       TCut            ....  2.500e-12 Eh

Convergence Tolerance:
 Convergence Check Mode ConvCheckMode   .... Total+1el-Energy
 Convergence forced     ConvForced      .... 0
 Energy Change          TolE            ....  1.000e-08 Eh
 1-El. energy change                    ....  1.000e-05 Eh
 Orbital Gradient       TolG            ....  1.000e-05
 Orbital Rotation angle TolX            ....  1.000e-05
 DIIS Error             TolErr          ....  5.000e-07

------------------------------
INITIAL GUESS: MODEL POTENTIAL
------------------------------
Loading Hartree-Fock densities                     ... done
Calculating cut-offs                               ... done
Initializing the effective Hamiltonian             ... done
Setting up the integral package (SHARK)            ... done
Starting the Coulomb interaction                   ... done (   0.2 sec)
Making the grid                                    ... done (   0.2 sec)
Mapping shells                                     ... done
Starting the XC term evaluation                    ... done (   0.1 sec)
  promolecular density results
     # of electrons  =    188.002609974
     EX              =   -155.553248055
     EC              =     -6.401376873
     EX+EC           =   -161.954624928
Transforming the Hamiltonian                       ... done (   0.1 sec)
Diagonalizing the Hamiltonian                      ... done (   0.1 sec)
Back transforming the eigenvectors                 ... done (   0.0 sec)
Now organizing SCF variables                       ... done
                      ------------------
                      INITIAL GUESS DONE (   0.8 sec)
                      ------------------
             **** ENERGY FILE WAS UPDATED (honokiol2-opt_EC.en.tmp) ****
Finished Guess after   1.7 sec
Maximum memory used throughout the entire GUESS-calculation: 79.2 MB


           ************************************************************
           *        Program running with 30 parallel MPI-processes    *
           *              working on a common directory               *
           ************************************************************

-------------------------------------------------------------------------------------------
                                      ORCA LEAN-SCF
                              memory conserving SCF solver
-------------------------------------------------------------------------------------------

----------------------------------------D-I-I-S--------------------------------------------
Iteration    Energy (Eh)           Delta-E    RMSDP     MaxDP     DIISErr   Damp  Time(sec)
-------------------------------------------------------------------------------------------
               ***  Starting incremental Fock matrix formation  ***
    1    -1188.6165757230924100     0.00e+00  1.28e-03  1.76e-01  2.99e-01  0.700   4.2
    2    -1188.9524540349711970    -3.36e-01  1.16e-03  1.92e-01  1.10e-01  0.700   2.9
                               ***Turning on AO-DIIS***
    3    -1189.0888508419739082    -1.36e-01  4.42e-04  5.75e-02  3.89e-02  0.700   2.5
    4    -1189.1702984588127947    -8.14e-02  6.52e-04  3.98e-02  1.89e-02  0.000   2.4
    5    -1189.3476135415703538    -1.77e-01  2.92e-04  5.10e-02  5.37e-03  0.000   2.5
                              *** Initializing SOSCF ***
---------------------------------------S-O-S-C-F--------------------------------------
Iteration    Energy (Eh)           Delta-E    RMSDP     MaxDP     MaxGrad    Time(sec)
--------------------------------------------------------------------------------------
    6    -1189.3485102321865270    -8.97e-04  1.05e-04  1.66e-02  1.80e-03     2.6
               *** Restarting incremental Fock matrix formation ***
    7    -1189.3485523283338807    -4.21e-05  8.26e-05  1.08e-02  2.31e-04     4.1
    8    -1189.3485456298017198     6.70e-06  1.39e-05  1.32e-03  4.84e-04     3.0
    9    -1189.3485597929834512    -1.42e-05  1.14e-05  9.99e-04  6.38e-05     2.7
   10    -1189.3485594912517627     3.02e-07  3.49e-06  3.22e-04  6.56e-05     2.5
   11    -1189.3485601496636264    -6.58e-07  3.19e-06  2.93e-04  1.55e-05     2.2
   12    -1189.3485601389729709     1.07e-08  1.24e-06  8.78e-05  2.37e-05     2.2
   13    -1189.3485601408006005    -1.83e-09  1.67e-06  1.70e-04  3.95e-06     2.0
                 **** Energy Check signals convergence ****

               *****************************************************
               *                     SUCCESS                       *
               *           SCF CONVERGED AFTER  13 CYCLES          *
               *****************************************************

Recomputing exchange energy using gridx3       ... done (    6.087 sec)
Old exchange energy                            :    -31.594076597 Eh
New exchange energy                            :    -31.594112928 Eh
Exchange energy change after final integration :     -0.000036331 Eh
Total energy after final integration           :  -1189.348596471 Eh
             **** ENERGY FILE WAS UPDATED (honokiol2-opt_EC.en.tmp) ****

----------------
TOTAL SCF ENERGY
----------------

Total Energy       :      -1189.34859647132362 Eh          -32363.82065 eV

Components:
Nuclear Repulsion  :       2275.89498976107143 Eh           61930.25114 eV
Electronic Energy  :      -3465.24354990187203 Eh          -94294.07081 eV
One Electron Energy:      -6143.24056975545773 Eh         -167166.07446 eV
Two Electron Energy:       2677.99701985358570 Eh           72872.00365 eV

Virial components:
Potential Energy   :      -2373.51452979771511 Eh          -64586.61388 eV
Kinetic Energy     :       1184.16593332639127 Eh           32222.79322 eV
Virial Ratio       :          2.00437663590809

DFT components:
N(Alpha)           :       94.000084556778 electrons
N(Beta)            :       94.000084556778 electrons
N(Total)           :      188.000169113556 electrons
E(X)               :     -125.586372605576 Eh       
E(C)               :       -7.547989085141 Eh       
E(XC)              :     -133.134361690717 Eh       

---------------
SCF CONVERGENCE
---------------

  Last Energy change         ...    1.8276e-09  Tolerance :   1.0000e-08
  Last MAX-Density change    ...    1.6958e-04  Tolerance :   1.0000e-07
  Last RMS-Density change    ...    1.6721e-06  Tolerance :   5.0000e-09
  Last DIIS Error            ...    1.7987e-03  Tolerance :   5.0000e-07
  Last Orbital Gradient      ...    3.9468e-06  Tolerance :   1.0000e-05
  Last Orbital Rotation      ...    1.3151e-05  Tolerance :   1.0000e-05


----------------
ORBITAL ENERGIES
----------------

  NO   OCC          E(Eh)            E(eV) 
   0   2.0000     -19.194188      -522.3004 
   1   2.0000     -19.193198      -522.2735 
   2   2.0000     -19.156387      -521.2718 
   3   2.0000     -19.124736      -520.4105 
   4   2.0000     -19.122933      -520.3615 
   5   2.0000     -10.355333      -281.7829 
   6   2.0000     -10.261276      -279.2235 
   7   2.0000     -10.258545      -279.1492 
   8   2.0000     -10.234023      -278.4819 
   9   2.0000     -10.216655      -278.0093 
  10   2.0000     -10.198181      -277.5066 
  11   2.0000     -10.192889      -277.3626 
  12   2.0000     -10.185429      -277.1596 
  13   2.0000     -10.185261      -277.1550 
  14   2.0000     -10.177473      -276.9431 
  15   2.0000     -10.173895      -276.8458 
  16   2.0000     -10.172108      -276.7971 
  17   2.0000     -10.169944      -276.7382 
  18   2.0000     -10.168894      -276.7097 
  19   2.0000     -10.167652      -276.6759 
  20   2.0000     -10.167122      -276.6615 
  21   2.0000     -10.162462      -276.5346 
  22   2.0000     -10.159204      -276.4460 
  23   2.0000     -10.158865      -276.4368 
  24   2.0000     -10.154460      -276.3169 
  25   2.0000     -10.151986      -276.2496 
  26   2.0000      -1.171368       -31.8746 
  27   2.0000      -1.061295       -28.8793 
  28   2.0000      -1.058987       -28.8165 
  29   2.0000      -1.053565       -28.6690 
  30   2.0000      -1.034315       -28.1451 
  31   2.0000      -0.865276       -23.5454 
  32   2.0000      -0.843927       -22.9644 
  33   2.0000      -0.819788       -22.3076 
  34   2.0000      -0.795347       -21.6425 
  35   2.0000      -0.791326       -21.5331 
  36   2.0000      -0.768750       -20.9187 
  37   2.0000      -0.760000       -20.6807 
  38   2.0000      -0.733249       -19.9527 
  39   2.0000      -0.715626       -19.4732 
  40   2.0000      -0.693412       -18.8687 
  41   2.0000      -0.692218       -18.8362 
  42   2.0000      -0.667439       -18.1619 
  43   2.0000      -0.627010       -17.0618 
  44   2.0000      -0.620011       -16.8714 
  45   2.0000      -0.615683       -16.7536 
  46   2.0000      -0.588633       -16.0175 
  47   2.0000      -0.581079       -15.8120 
  48   2.0000      -0.575206       -15.6521 
  49   2.0000      -0.555583       -15.1182 
  50   2.0000      -0.548663       -14.9299 
  51   2.0000      -0.544788       -14.8244 
  52   2.0000      -0.535139       -14.5619 
  53   2.0000      -0.526801       -14.3350 
  54   2.0000      -0.518506       -14.1093 
  55   2.0000      -0.494999       -13.4696 
  56   2.0000      -0.485843       -13.2204 
  57   2.0000      -0.477820       -13.0021 
  58   2.0000      -0.469145       -12.7661 
  59   2.0000      -0.459802       -12.5119 
  60   2.0000      -0.456664       -12.4265 
  61   2.0000      -0.454723       -12.3736 
  62   2.0000      -0.453793       -12.3483 
  63   2.0000      -0.452222       -12.3056 
  64   2.0000      -0.440540       -11.9877 
  65   2.0000      -0.428274       -11.6539 
  66   2.0000      -0.424253       -11.5445 
  67   2.0000      -0.419527       -11.4159 
  68   2.0000      -0.416239       -11.3264 
  69   2.0000      -0.414085       -11.2678 
  70   2.0000      -0.401329       -10.9207 
  71   2.0000      -0.395437       -10.7604 
  72   2.0000      -0.392655       -10.6847 
  73   2.0000      -0.391938       -10.6652 
  74   2.0000      -0.391086       -10.6420 
  75   2.0000      -0.381198       -10.3729 
  76   2.0000      -0.373286       -10.1576 
  77   2.0000      -0.366185        -9.9644 
  78   2.0000      -0.354093        -9.6354 
  79   2.0000      -0.350632        -9.5412 
  80   2.0000      -0.349014        -9.4971 
  81   2.0000      -0.341922        -9.3042 
  82   2.0000      -0.333043        -9.0626 
  83   2.0000      -0.326696        -8.8899 
  84   2.0000      -0.324233        -8.8228 
  85   2.0000      -0.320633        -8.7249 
  86   2.0000      -0.313848        -8.5402 
  87   2.0000      -0.307474        -8.3668 
  88   2.0000      -0.287303        -7.8179 
  89   2.0000      -0.258349        -7.0300 
  90   2.0000      -0.254102        -6.9145 
  91   2.0000      -0.251959        -6.8562 
  92   2.0000      -0.223406        -6.0792 
  93   2.0000      -0.201797        -5.4912 
  94   0.0000      -0.028040        -0.7630 
  95   0.0000      -0.018653        -0.5076 
  96   0.0000      -0.006081        -0.1655 
  97   0.0000       0.007012         0.1908 
  98   0.0000       0.008897         0.2421 
  99   0.0000       0.011693         0.3182 
 100   0.0000       0.020059         0.5458 
 101   0.0000       0.029355         0.7988 
 102   0.0000       0.032287         0.8786 
 103   0.0000       0.040653         1.1062 
 104   0.0000       0.050686         1.3792 
*Only the first 10 virtual orbitals were printed.

                    ********************************
                    * MULLIKEN POPULATION ANALYSIS *
                    ********************************

-----------------------
MULLIKEN ATOMIC CHARGES
-----------------------
   0 O :   -0.399959
   1 O :   -0.438139
   2 C :    0.106687
   3 C :    0.080352
   4 C :    0.100803
   5 C :   -0.251735
   6 C :    0.136544
   7 C :   -0.259455
   8 C :    0.219134
   9 C :   -0.186395
  10 C :    0.255718
  11 C :   -0.258294
  12 C :   -0.200946
  13 C :   -0.136885
  14 C :   -0.226081
  15 C :   -0.233779
  16 C :   -0.133470
  17 C :   -0.085029
  18 C :   -0.274706
  19 C :   -0.266597
  20 H :    0.119155
  21 H :    0.111746
  22 H :    0.121630
  23 H :    0.124420
  24 H :    0.119384
  25 H :    0.100718
  26 H :    0.104193
  27 H :    0.091393
  28 H :    0.105565
  29 H :    0.101365
  30 H :    0.118567
  31 H :    0.101524
  32 H :    0.334062
  33 H :    0.322946
  34 H :    0.124690
  35 H :    0.119037
  36 H :    0.106606
  37 H :    0.098469
  38 H :    0.114071
  39 H :    0.121417
  40 C :   -0.017011
  41 O :   -0.256147
  42 C :    0.438418
  43 C :   -0.030069
  44 O :   -0.258028
  45 O :   -0.328300
  46 H :    0.113226
  47 H :    0.129185
Sum of atomic charges:   -0.0000000

--------------------------------
MULLIKEN REDUCED ORBITAL CHARGES
--------------------------------
  0 O s       :     3.764149  s :     3.764149
      pz      :     1.500262  p :     4.603909
      px      :     1.359759
      py      :     1.743889
      dz2     :     0.009786  d :     0.030185
      dxz     :     0.003898
      dyz     :     0.006801
      dx2y2   :     0.007020
      dxy     :     0.002680
      f0      :     0.000199  f :     0.001716
      f+1     :     0.000348
      f-1     :     0.000289
      f+2     :     0.000208
      f-2     :     0.000207
      f+3     :     0.000364
      f-3     :     0.000100

  1 O s       :     3.779629  s :     3.779629
      pz      :     1.537923  p :     4.626919
      px      :     1.338998
      py      :     1.749997
      dz2     :     0.005098  d :     0.029936
      dxz     :     0.011978
      dyz     :     0.004186
      dx2y2   :     0.004200
      dxy     :     0.004474
      f0      :     0.000018  f :     0.001655
      f+1     :     0.000329
      f-1     :     0.000090
      f+2     :     0.000236
      f-2     :     0.000287
      f+3     :     0.000298
      f-3     :     0.000397

  2 C s       :     3.253661  s :     3.253661
      pz      :     0.875581  p :     2.522828
      px      :     0.749188
      py      :     0.898060
      dz2     :     0.021935  d :     0.107204
      dxz     :     0.025012
      dyz     :     0.016954
      dx2y2   :     0.020547
      dxy     :     0.022756
      f0      :     0.001448  f :     0.009619
      f+1     :     0.001356
      f-1     :     0.001273
      f+2     :     0.001681
      f-2     :     0.001468
      f+3     :     0.001177
      f-3     :     0.001215

  3 C s       :     3.255768  s :     3.255768
      pz      :     0.855446  p :     2.533726
      px      :     0.740814
      py      :     0.937466
      dz2     :     0.027366  d :     0.120368
      dxz     :     0.028485
      dyz     :     0.021035
      dx2y2   :     0.020940
      dxy     :     0.022542
[...]
      px      :     0.044399
      py      :     0.044462

 34 H s       :     0.814680  s :     0.814680
      pz      :     0.015776  p :     0.062078
      px      :     0.013653
      py      :     0.032650

 35 H s       :     0.817101  s :     0.817101
      pz      :     0.017077  p :     0.061587
      px      :     0.020631
      py      :     0.023879

 36 H s       :     0.820492  s :     0.820492
      pz      :     0.027682  p :     0.061591
      px      :     0.019516
      py      :     0.014393

 37 H s       :     0.821566  s :     0.821566
      pz      :     0.012824  p :     0.061259
      px      :     0.014105
      py      :     0.034330

 38 H s       :     0.814519  s :     0.814519
      pz      :     0.016062  p :     0.059341
      px      :     0.014890
      py      :     0.028389

 39 H s       :     0.811534  s :     0.811534
      pz      :     0.036445  p :     0.059401
      px      :     0.009619
      py      :     0.013337

 40 C s       :     2.813256  s :     2.813256
      pz      :     0.923236  p :     2.900348
      px      :     0.939634
      py      :     1.037478
      dz2     :     0.087098  d :     0.476208
      dxz     :     0.119228
      dyz     :     0.101180
      dx2y2   :     0.058286
      dxy     :     0.110417
      f0      :     0.011898  f :     0.068786
      f+1     :     0.013898
      f-1     :     0.005054
      f+2     :     0.012228
      f-2     :     0.011375
      f+3     :     0.007701
      f-3     :     0.006631

 41 O s       :     3.271034  s :     3.271034
      pz      :     1.421713  p :     4.352574
      px      :     1.420417
      py      :     1.510444
      dz2     :     0.027989  d :     0.104650
      dxz     :     0.020089
      dyz     :     0.020414
      dx2y2   :     0.019626
      dxy     :     0.016532
      f0      :     0.001196  f :     0.007346
      f+1     :     0.001410
      f-1     :     0.001364
      f+2     :     0.000893
      f-2     :     0.000778
      f+3     :     0.000969
      f-3     :     0.000736

 42 C s       :     2.736529  s :     2.736529
      pz      :     0.864372  p :     2.589640
      px      :     0.921590
      py      :     0.803678
      dz2     :     0.247764  d :     1.083865
      dxz     :     0.267643
      dyz     :     0.151890
      dx2y2   :     0.210459
      dxy     :     0.206108
      f0      :     0.025034  f :     0.195409
      f+1     :     0.049826
      f-1     :     0.015874
      f+2     :     0.023132
      f-2     :     0.031248
      f+3     :     0.027937
      f-3     :     0.022358

 43 C s       :     2.813379  s :     2.813379
      pz      :     1.046235  p :     2.901991
      px      :     0.812411
      py      :     1.043345
      dz2     :     0.111002  d :     0.473095
      dxz     :     0.091823
      dyz     :     0.033144
      dx2y2   :     0.137946
      dxy     :     0.099181
      f0      :     0.006610  f :     0.068527
      f+1     :     0.009695
      f-1     :     0.005306
      f+2     :     0.010803
      f-2     :     0.009805
      f+3     :     0.012667
      f-3     :     0.013642

 44 O s       :     3.271866  s :     3.271866
      pz      :     1.511154  p :     4.355268
      px      :     1.264213
      py      :     1.579901
      dz2     :     0.016904  d :     0.104403
      dxz     :     0.034727
      dyz     :     0.009261
      dx2y2   :     0.024143
      dxy     :     0.019369
      f0      :     0.000838  f :     0.007317
      f+1     :     0.001639
      f-1     :     0.000352
      f+2     :     0.001412
      f-2     :     0.001119
      f+3     :     0.001046
      f-3     :     0.000911

 45 O s       :     3.390619  s :     3.390619
      pz      :     1.508617  p :     4.424004
      px      :     1.504724
      py      :     1.410664
      dz2     :     0.008856  d :     0.065635
      dxz     :     0.020583
      dyz     :     0.006099
      dx2y2   :     0.014907
      dxy     :     0.015189
      f0      :     0.000718  f :     0.006590
      f+1     :     0.001178
      f-1     :     0.000172
      f+2     :     0.001332
      f-2     :     0.001169
      f+3     :     0.000931
      f-3     :     0.001091

 46 H s       :     0.810513  s :     0.810513
      pz      :     0.015394  p :     0.059549
      px      :     0.023947
      py      :     0.020208

 47 H s       :     0.809302  s :     0.809302
      pz      :     0.013891  p :     0.060793
      px      :     0.008699
      py      :     0.038202



                      *****************************
                      * MAYER POPULATION ANALYSIS *
                      *****************************

  NA   - Mulliken gross atomic population
  ZA   - Total nuclear charge
  QA   - Mulliken gross atomic charge
  VA   - Mayer's total valence
  BVA  - Mayer's bonded valence
  FA   - Mayer's free valence

  ATOM       NA         ZA         QA         VA         BVA        FA
  0 O      8.4080     8.0000    -0.4080     2.0793     2.0793     0.0000
  1 O      8.4363     8.0000    -0.4363     2.0141     2.0141     0.0000
  2 C      5.8956     6.0000     0.1044     3.3798     3.3798    -0.0000
  3 C      5.9377     6.0000     0.0623     3.7310     3.7310     0.0000
  4 C      5.9063     6.0000     0.0937     3.5361     3.5361    -0.0000
  5 C      6.2381     6.0000    -0.2381     3.9724     3.9724    -0.0000
  6 C      5.8707     6.0000     0.1293     3.7174     3.7174     0.0000
  7 C      6.2572     6.0000    -0.2572     3.8533     3.8533     0.0000
  8 C      5.7771     6.0000     0.2229     3.9715     3.9715    -0.0000
  9 C      6.1598     6.0000    -0.1598     3.8992     3.8992    -0.0000
 10 C      5.7401     6.0000     0.2599     3.8035     3.8035    -0.0000
 11 C      6.2572     6.0000    -0.2572     3.9247     3.9247    -0.0000
 12 C      6.1958     6.0000    -0.1958     3.8741     3.8741     0.0000
 13 C      6.1366     6.0000    -0.1366     3.9156     3.9156    -0.0000
 14 C      6.2381     6.0000    -0.2381     3.8764     3.8764    -0.0000
 15 C      6.2302     6.0000    -0.2302     3.9843     3.9843    -0.0000
 16 C      6.1356     6.0000    -0.1356     3.8008     3.8008     0.0000
 17 C      6.0858     6.0000    -0.0858     3.8357     3.8357    -0.0000
 18 C      6.2723     6.0000    -0.2723     3.9106     3.9106     0.0000
 19 C      6.2664     6.0000    -0.2664     3.9364     3.9364    -0.0000
 20 H      0.8830     1.0000     0.1170     0.9812     0.9812    -0.0000
 21 H      0.8866     1.0000     0.1134     0.9836     0.9836     0.0000
 22 H      0.8829     1.0000     0.1171     0.9807     0.9807    -0.0000
 23 H      0.8742     1.0000     0.1258     0.9657     0.9657    -0.0000
 24 H      0.8810     1.0000     0.1190     0.9753     0.9753     0.0000
 25 H      0.9003     1.0000     0.0997     0.9701     0.9701     0.0000
 26 H      0.8962     1.0000     0.1038     0.9690     0.9690    -0.0000
 27 H      0.9094     1.0000     0.0906     0.9739     0.9739    -0.0000
 28 H      0.8958     1.0000     0.1042     0.9877     0.9877     0.0000
 29 H      0.8992     1.0000     0.1008     0.9924     0.9924     0.0000
 30 H      0.8816     1.0000     0.1184     0.9778     0.9778     0.0000
 31 H      0.8988     1.0000     0.1012     0.9751     0.9751     0.0000
 32 H      0.6676     1.0000     0.3324     0.9344     0.9344    -0.0000
 33 H      0.6773     1.0000     0.3227     0.9286     0.9286     0.0000
 34 H      0.8757     1.0000     0.1243     0.9755     0.9755    -0.0000
 35 H      0.8814     1.0000     0.1186     0.9761     0.9761     0.0000
 36 H      0.8935     1.0000     0.1065     0.9741     0.9741    -0.0000
 37 H      0.9012     1.0000     0.0988     0.9781     0.9781     0.0000
 38 H      0.8866     1.0000     0.1134     0.9579     0.9579    -0.0000
 39 H      0.8775     1.0000     0.1225     0.9574     0.9574    -0.0000
 40 C      6.0181     6.0000    -0.0181     3.8814     3.8814    -0.0000
 41 O      8.2546     8.0000    -0.2546     2.1344     2.1344     0.0000
 42 C      5.5553     6.0000     0.4447     4.3808     4.3808     0.0000
 43 C      6.0312     6.0000    -0.0312     3.8674     3.8674    -0.0000
 44 O      8.2598     8.0000    -0.2598     2.1230     2.1230     0.0000
 45 O      8.3313     8.0000    -0.3313     2.1531     2.1531    -0.0000
 46 H      0.8843     1.0000     0.1157     0.9631     0.9631     0.0000
 47 H      0.8707     1.0000     0.1293     0.9654     0.9654    -0.0000

  Mayer bond orders larger than 0.100000
B(  0-O ,  8-C ) :   1.1387 B(  0-O , 32-H ) :   0.8381 B(  1-O , 10-C ) :   1.0364 
B(  1-O , 33-H ) :   0.8612 B(  2-C ,  3-C ) :   0.8617 B(  2-C ,  7-C ) :   1.3004 
B(  2-C ,  8-C ) :   1.2483 B(  3-C ,  5-C ) :   1.4250 B(  3-C ,  9-C ) :   1.3514 
B(  4-C ,  5-C ) :   1.3521 B(  4-C , 10-C ) :   1.2845 B(  4-C , 11-C ) :   0.9038 
B(  5-C , 20-H ) :   0.9545 B(  6-C ,  7-C ) :   1.3871 B(  6-C , 12-C ) :   0.9107 
B(  6-C , 13-C ) :   1.3630 B(  7-C , 21-H ) :   0.9717 B(  8-C , 15-C ) :   1.4224 
B(  9-C , 14-C ) :   1.3945 B(  9-C , 22-H ) :   0.9896 B( 10-C , 14-C ) :   1.3748 
B( 11-C , 16-C ) :   0.9557 B( 11-C , 23-H ) :   0.9805 B( 11-C , 24-H ) :   0.9660 
B( 12-C , 17-C ) :   0.9675 B( 12-C , 25-H ) :   0.9657 B( 12-C , 26-H ) :   0.9727 
B( 13-C , 15-C ) :   1.4238 B( 13-C , 27-H ) :   0.9787 B( 14-C , 28-H ) :   0.9934 
B( 15-C , 29-H ) :   0.9832 B( 16-C , 18-C ) :   1.8898 B( 16-C , 30-H ) :   0.9561 
B( 17-C , 19-C ) :   1.9259 B( 17-C , 31-H ) :   0.9549 B( 18-C , 34-H ) :   0.9674 
B( 18-C , 35-H ) :   0.9646 B( 19-C , 36-H ) :   0.9661 B( 19-C , 37-H ) :   0.9624 
B( 38-H , 40-C ) :   0.9620 B( 39-H , 43-C ) :   0.9603 B( 40-C , 43-C ) :   0.9892 
B( 40-C , 44-O ) :   0.9258 B( 40-C , 46-H ) :   0.9588 B( 41-O , 42-C ) :   1.1603 
B( 41-O , 43-C ) :   0.9271 B( 42-C , 44-O ) :   1.1497 B( 42-C , 45-O ) :   2.0034 
B( 43-C , 47-H ) :   0.9530 

-------
TIMINGS
-------

Total SCF time: 0 days 0 hours 0 min 25 sec 

Total time                  ....      25.207 sec
Sum of individual times     ....      25.028 sec  ( 99.3%)

SCF preparation             ....       0.928 sec  (  3.7%)
Fock matrix formation       ....      21.360 sec  ( 84.7%)
  Startup                   ....       0.089 sec  (  0.4% of F)
  Split-RI-J                ....       1.888 sec  (  8.8% of F)
  Chain of spheres X        ....      17.277 sec  ( 80.9% of F)
  XC integration            ....       1.851 sec  (  8.7% of F)
    Basis function eval.    ....       0.454 sec  ( 24.5% of XC)
    Density eval.           ....       0.556 sec  ( 30.0% of XC)
    XC-Functional eval.     ....       0.028 sec  (  1.5% of XC)
    XC-Potential eval.      ....       0.505 sec  ( 27.3% of XC)
Diagonalization             ....       0.000 sec  (  0.0%)
Density matrix formation    ....       0.274 sec  (  1.1%)
Total Energy calculation    ....       0.128 sec  (  0.5%)
Population analysis         ....       0.291 sec  (  1.2%)
Orbital Transformation      ....       0.298 sec  (  1.2%)
Orbital Orthonormalization  ....       0.000 sec  (  0.0%)
DIIS solution               ....       0.354 sec  (  1.4%)
SOSCF solution              ....       1.397 sec  (  5.5%)
Finished LeanSCF after  25.4 sec

Maximum memory used throughout the entire LEANSCF-calculation: 154.3 MB

-------------------------   --------------------
FINAL SINGLE POINT ENERGY     -1189.348822656476
-------------------------   --------------------

                                *** OPTIMIZATION RUN DONE ***



           ************************************************************
           *        Program running with 30 parallel MPI-processes    *
           *              working on a common directory               *
           ************************************************************

------------------------------------------------------------------------------
                              ORCA PROPERTY CALCULATIONS
------------------------------------------------------------------------------

GBWName                                 ... honokiol2-opt_EC.gbw
Number of atoms                         ...     48
Number of basis functions               ...    938
Max core memory                         ...   5000 MB

Electric properties:
Dipole moment                           ... YES
Quadrupole moment                       ...  NO
Static polarizability (Dipole/Dipole)   ...  NO
Static polarizability (Dipole/Quad.)    ...  NO
Static polarizability (Quad./Quad.)     ...  NO
Static polarizability (Velocity)        ...  NO

Atomic electric properties:
Dipole moment                           ...  NO
Quadrupole moment                       ...  NO
Static polarizability                   ...  NO

Choice of electric origin               ... Center of mass
Position of electric origin             ...    -1.624875     0.194417     1.931157

General magnetic properties:
Magnetizability                         ...  NO

EPR properties:
g-Tensor (aka g-matrix)                 ...  NO
Zero-Field splitting spin-orbit         ...  NO
Zero-field splitting spin-spin          ...  NO
Hyperfine couplings                     ...  NO (   0 nuclei)
Quadrupole couplings                    ...  NO (   0 nuclei)
Contact density                         ...  NO (   0 nuclei)

NMR properties:
Chemical shifts                         ...  NO (   0 nuclei)
Spin-rotation constants                 ...  NO (   0 nuclei)
Spin-spin couplings                     ...  NO (   0 nuclei,    0 pairs)

Choice of magnetic origin               ... GIAO
Position of magnetic origin             ...     0.000000     0.000000     0.000000

Properties with geometric perturbations:
SCF Hessian                             ...  NO
IR spectrum                             ...  NO
VCD spectrum                            ...  NO
X-ray spectroscopy properties:
SCF XES/XAS/RIXS spectra                ...  NO


-------------
DIPOLE MOMENT
-------------

Method             : SCF
Type of density    : Electron Density
Multiplicity       :   1
Irrep              :   0
Energy             : -1189.3488226564763863 Eh
Relativity type    : 
Basis              : AO
                                X                 Y                 Z
Electronic contribution:      2.165591056       8.576582649      15.247468368
Nuclear contribution   :     -4.778427685      -9.267079488     -14.743401936
                        -----------------------------------------
Total Dipole Moment    :     -2.612836630      -0.690496838       0.504066431
                        -----------------------------------------
Magnitude (a.u.)       :      2.749142431
Magnitude (Debye)      :      6.987764732



--------------------
Rotational spectrum 
--------------------
 
Rotational constants in cm-1:             0.009338             0.004131             0.003151 
Rotational constants in MHz :           279.941052           123.851766            94.450563 

Dipole components along the rotational axes: 
x,y,z [a.u.] :     2.421653    -1.301148     0.019923 
x,y,z [Debye]:     6.155352    -3.307254     0.050640 

 

Dipole moment calculation done in   0.2 sec 

Maximum memory used throughout the entire PROP-calculation: 85.2 MB

--------------------------------
SUGGESTED CITATIONS FOR THIS RUN
--------------------------------

Below you find a list of papers that are relevant to this ORCA run
We neither can nor want to force you to cite these papers, but we appreciate if you do
You receive ORCA, which is the product of decades of hard work by many enthusiastic individuals, for free
The only thing we kindly ask in return is that you cite our papers,
We deeply appreciate it, if you show your appreciation for ORCA by not just citing the generic ORCA reference.

Please note that relegating all ORCA citations to the supporting information does *not* help us.
SI sections are not indexed - citations you put there will not count into any citation statistics
But we need these citations in order to attract the funding resources that allow us to do what we are doing

Therefore, if you are a happy ORCA user, please consider citing a few of the papers listed below in the main body of your paper

In addition to the list printed below, the program has created the file honokiol2-opt_EC.bibtex that contains the list in bibtex format
You can import this file easily into all common literature databanks and citation aid programs


List of essential papers. We consider these as the minimum necessary citations

  1. Neese,F.
     Software update: the ORCA program system, version 5.0
     WIRES Comput. Molec. Sci., 2022 12(1)e1606
     doi.org/10.1002/wcms.1606

List of papers to cite with high priority. The work reported in these papers was absolutely
necessary for this run to complete.
Our perspective: the developers of density functionals and basis sets usually get cited in chemistry papers
Good! But without the algorithms to do something with them, the functionals or basis sets would not do anything.
Hence, in our opinion, the algorithm design and method developments papers are equally worthy of getting cited

  1. Neese,F.
     An improvement of the resolution of the identity approximation for the formation of the Coulomb matrix
     J. Comp. Chem., 2003 24(14)1740-1747
     doi.org/10.1002/jcc.10318
  2. Neese,F.; Wennmohs,F.; Hansen,A.; Becker,U.
     Efficient, approximate and parallel Hartree-Fock and hybrid DFT calculations. A 'chain-of-spheres' algorithm for the Hartree-Fock exchange
     Chem. Phys., 2009 356(1-3)98-109
     doi.org/10.1016/j.chemphys.2008.10.036
  3. Helmich-Paris,B.; de Souza,B.; Neese,F.; Izsák,R.
     An improved chain of spheres for exchange algorithm
     J. Chem. Phys., 2021 155 104109
     doi.org/doi: 10.1063/5.0058766.
  4. Neese,F.
     The SHARK Integral Generation and Digestion System
     J. Comp. Chem., 2022  1-16
     doi.org/10.1002/jcc.26942

List of suggested additional citations. These are papers that are important in the 'surrounding' of 
of this run, or papers that preceded the highly important papers. If you like your results we are grateful for a citation.

  1. Izsak,R.; Neese,F.
     An overlap fitted chain of spheres exchange method
     J. Chem. Phys., 2011 135 144105
     doi.org/10.1063/1.3646921
  2. Izsak,R.; Hansen,A.; Neese,F.
     The resolution of identity and chain of spheres approximations for the LPNO-CCSD singles Fock term
     Molec. Phys., 2012 110 2413-2417
     doi.org/10.1080/00268976.2012.687466
  3. Neese,F.
     The ORCA program system
     WIRES Comput. Molec. Sci., 2012 2(1)73-78
     doi.org/10.1002/wcms.81
  4. Izsak,R.; Neese,F.; Klopper,W.
     Robust fitting techniques in the chain of spheres approximation to the Fock exchange: The role of the complementary space
     J. Chem. Phys., 2013 139 
     doi.org/10.1063/1.4819264
  5. Neese,F.
     Software update: the ORCA program system, version 4.0
     WIRES Comput. Molec. Sci., 2018 8(1)1-6
     doi.org/10.1002/wcms.1327
  6. Neese,F.; Wennmohs,F.; Becker,U.; Riplinger,C.
     The ORCA quantum chemistry program package
     J. Chem. Phys., 2020 152 Art. No. L224108
     doi.org/10.1063/5.0004608

List of optional additional citations

  1. Neese,F.
     Approximate second-order SCF convergence for spin unrestricted wavefunctions
     Chem. Phys. Lett., 2000 325(1-3)93-98
     doi.org/10.1016/s0009-2614(00)00662-x

Timings for individual modules:

Sum of individual times          ...     1461.026 sec (=  24.350 min)
Startup calculation              ...      117.253 sec (=   1.954 min)   8.0 %
SCF iterations                   ...      958.580 sec (=  15.976 min)  65.6 %
Property calculations            ...        1.425 sec (=   0.024 min)   0.1 %
SCF Gradient evaluation          ...      383.366 sec (=   6.389 min)  26.2 %
Geometry relaxation              ...        0.402 sec (=   0.007 min)   0.0 %
                             ****ORCA TERMINATED NORMALLY****
TOTAL RUN TIME: 0 days 0 hours 24 minutes 50 seconds 655 msec
