
                                 *****************
                                 * O   R   C   A *
                                 *****************

                                            #,                                       
                                            ###                                      
                                            ####                                     
                                            #####                                    
                                            ######                                   
                                           ########,                                 
                                     ,,################,,,,,                         
                               ,,#################################,,                 
                          ,,##########################################,,             
                       ,#########################################, ''#####,          
                    ,#############################################,,   '####,        
                  ,##################################################,,,,####,       
                ,###########''''           ''''###############################       
              ,#####''   ,,,,##########,,,,          '''####'''          '####       
            ,##' ,,,,###########################,,,                        '##       
           ' ,,###''''                  '''############,,,                           
         ,,##''                                '''############,,,,        ,,,,,,###''
      ,#''                                            '''#######################'''  
     '                                                          ''''####''''         
             ,#######,   #######,   ,#######,      ##                                
            ,#'     '#,  ##    ##  ,#'     '#,    #''#        ,####,   ,####,        
            ##       ##  ##   ,#'  ##            #'  '#       #'       #'  '#        
            ##       ##  #######   ##           ,######,      #####,   #    #        
            '#,     ,#'  ##    ##  '#,     ,#' ,#      #,     #,   #   #,  ,#        
             '#######'   ##     ##  '#######'  #'      '#     '####' # '####'        



                #########################################################
                #                        -***-                          #
                #          Department of theory and spectroscopy        #
                #                                                       #
                #                      Frank Neese                      #
                #                                                       #
                #     Directorship, Architecture, Infrastructure        #
                #                    SHARK, DRIVERS                     #
                #        Core code/Algorithms in most modules           #
                #                                                       #
                #        Max Planck Institute fuer Kohlenforschung      #
                #                Kaiser Wilhelm Platz 1                 #
                #                 D-45470 Muelheim/Ruhr                 #
                #                      Germany                          #
                #                                                       #
                #                  All rights reserved                  #
                #                        -***-                          #
                #########################################################


                         Program Version 6.0.1  -  RELEASE   -


 With contributions from (in alphabetic order):
[Max-Planck-Institut fuer Kohlenforschung]                               
  Daniel Aravena         : Magnetic Suceptibility                        
  Michael Atanasov       : Ab Initio Ligand Field Theory (pilot matlab implementation)
  Alexander A. Auer      : GIAO ZORA, VPT2 properties, NMR spectrum      
  Ute Becker             : All parallelization in ORCA, NUMFREQ, NUMCALC 
  Giovanni Bistoni       : ED, misc. LED, open-shell LED, HFLD           
  Martin Brehm           : Molecular dynamics                            
  Dmytro Bykov           : pre 5.0 version of the SCF Hessian            
  Marcos Casanova-Páez   : Triplet and SCS-CIS(D). UHF-(DLPNO)-IP/EA/STEOM-CCSD. UHF-CVS-IP/STEOM-CCSD   
  Vijay G. Chilkuri      : MRCI spin determinant printing, contributions to CSF-ICE 
  Pauline Colinet        : FMM embedding                                 
  Dipayan Datta          : RHF DLPNO-CCSD density                        
  Achintya Kumar Dutta   : EOM-CC, STEOM-CC                              
  Nicolas Foglia         : Exact transition moments, OPA infrastructure, MCD improvements    
  Dmitry Ganyushin       : Spin-Orbit,Spin-Spin,Magnetic field MRCI      
  Miquel Garcia-Rates    : C-PCM and meta-GGA Hessian, CCSD/C-PCM, Gaussian charge scheme 
  Tiago L. C. Gouveia    : GS-ROHF, GS-ROCIS                             
  Yang Guo               : DLPNO-NEVPT2, F12-NEVPT2, CIM, IAO-localization        
  Andreas Hansen         : Spin unrestricted coupled pair/coupled cluster methods 
  Ingolf Harden          : AUTO-CI MPn and infrastructure                
  Benjamin Helmich-Paris : MC-RPA, TRAH-(SCF,CASSCF), AVAS, COSX integrals, SCF dyn. polar. 
  Lee Huntington         : MR-EOM, pCC                                   
  Robert Izsak           : Overlap fitted RIJCOSX, COSX-SCS-MP3, EOM     
  Riya Kayal             : Wick's Theorem for AUTO-CI, AUTO-CI UHF-CCSDT 
  Emily Kempfer          : AUTO-CI, RHF CISDT and CCSDT                  
  Christian Kollmar      : KDIIS, OOCD, Brueckner-CCSD(T), CCSD density, CASPT2, CASPT2-K, improved NEVPT2 
  Axel Koslowski         : Symmetry handling                             
  Simone Kossmann        : meta-GGA functionals, TD-DFT gradient, OOMP2, (MP2 Hessian; deprecated post 5.0) 
  Lucas Lang             : DCDCAS                                        
  Marvin Lechner         : AUTO-CI (C++ implementation), FIC-MRCC        
  Spencer Leger          : CASSCF response                               
  Dagmar Lenk            : GEPOL surface, SMD, ORCA-2-JSON               
  Dimitrios Liakos       : Extrapolation schemes; Compound Job, initial MDCI parallelization 
  Dimitrios Manganas     : Further ROCIS development; embedding schemes. LFT, Crystal Embedding 
  Dimitrios Pantazis     : SARC Basis sets                               
  Anastasios Papadopoulos: AUTO-CI, single reference methods and gradients 
  Taras Petrenko         : pre 6.0 DFT Hessian and TD-DFT gradient, (ASA, deprecated), ECA, 1-Electron XAS/XES, NRVS 
  Peter Pinski           : DLPNO-MP2, DLPNO-MP2 Gradient                 
  Christoph Reimann      : Effective Core Potentials                     
  Marius Retegan         : Local ZFS, SOC                                
  Christoph Riplinger    : Optimizer, TS searches, QM/MM, DLPNO-CCSD(T), (RO)-DLPNO pert. Triples 
  Michael Roemelt        : Original ROCIS implementation                 
  Masaaki Saitow         : Open-shell DLPNO-CCSD energy and density      
  Barbara Sandhoefer     : DKH picture change effects                    
  Kantharuban Sivalingam : CASSCF convergence/infrastructure, NEVPT2 and variants, FIC-MRCI 
  Bernardo de Souza      : ESD, SOC TD-DFT                               
  Georgi L. Stoychev     : AutoAux, RI-MP2 NMR, DLPNO-MP2 response, X2C  
  Van Anh Tran           : RI-MP2 g-tensors                              
  Willem Van den Heuvel  : Paramagnetic NMR                              
  Zikuan Wang            : NOTCH, Electric field optimization            
  Frank Wennmohs         : Technical directorship and infrastructure     
  Hang Xu                : AUTO-CI-Response properties                   
                                                                         
[FACCTs GmbH]                                                            
  Markus Bursch, Miquel Garcia-Rates, Christoph Riplinger, Bernardo de Souza, Georgi L. Stoychev 
                                                                 
  APM, Basis sets (HGBS, AHGBS, def-TZVP (Ac-Lr), def2-XVPD (La-Lu)), CI-OPT, improved COSX, DLPNO-Multilevel,           
  DOCKER, DRACO, updates on ESD, GOAT, IRC, LR-CPCM, MBIS, meta-GGA TD-DFT gradient, ML-optimized integration grids, 
  MM, NACMEs, nearIR, NEB, NEB-TS, NL-DFT gradient (VV10), 2- and 3-layer-ONIOM, interface openCOSMO-RS, QMMM,   
  Crystal-QMMM, SF, symmetry and pop. for TD-DFT, r2SCAN hybrids, SOLVATOR                                   
                                                                         
[Other institutions]                                                     
  V. Asgeirsson          : NEB                                           
  Christoph Bannwarth    : sTDA-DFT, sTD-DFT, PBEh-3c, B97-3c, D3        
  Sebastian Ehlert       : rSCAN, r2SCAN, r2SCAN-3c, D4, dhf basis sets  
  Marvin Friede          : D4 for Fr, Ra, Ac-Lr                          
  Lars Goerigk           : TD-DFT with DH, B97 family of functionals     
  Stefan Grimme          : VdW corrections, initial TS optimization, DFT functionals, gCP, sTDA/sTD-DF 
  Waldemar Hujo          : DFT-NL                                        
  H. Jonsson             : NEB                                           
  Holger Kruse           : gCP                                           
  Marcel Mueller         : wB97X-3c, vDZP basis set                      
  Hagen Neugebauer       : wr2SCAN                                       
  Tobias Risthaus        : range-separated hybrid DFT                    
  Lukas Wittmann         : regularized MP2, r2SCAN double-hybrids, wr2SCAN        
                                                                         
We gratefully acknowledge several colleagues who have allowed us to      
interface, adapt or use parts of their codes:                            
  Ed Valeev, F. Pavosevic, A. Kumar             : LibInt (2-el integral package), F12 methods 
  Garnet Chan, S. Sharma, J. Yang, R. Olivares  : DMRG                   
  Ulf Ekstrom                                   : XCFun DFT Library      
  Mihaly Kallay                                 : mrcc  (arbitrary order and MRCC methods)
  Frank Weinhold                                : gennbo (NPA and NBO analysis)           
  Simon Mueller                                 : openCOSMO-RS                            
  Christopher J. Cramer and Donald G. Truhlar   : smd solvation model                     
  S Lehtola, MJT Oliveira, MAL Marques          : LibXC Library                           
  Liviu Ungur et al                             : ANISO software                          


 Your calculation uses the libint2 library for the computation of 2-el integrals
 For citations please refer to: http://libint.valeyev.net

 Your ORCA version has been built with support for libXC version: 6.2.2
 For citations please refer to: https://libxc.gitlab.io

 This ORCA versions uses:
   CBLAS   interface :  Fast vector & matrix operations
   LAPACKE interface :  Fast linear algebra routines
   SCALAPACK package :  Parallel linear algebra routines
   Shared memory     :  Shared parallel matrices
   BLAS/LAPACK       :  OpenBLAS 0.3.27  USE64BITINT DYNAMIC_ARCH NO_AFFINITY SkylakeX SINGLE_THREADED
        Core in use  :  SkylakeX
   Copyright (c) 2011-2014, The OpenBLAS Project


NOTE: MaxCore=5000 MB was set to SCF,MP2,MDCI,CIPSI,MRCI and CIS
      => If you want to overwrite this, your respective input block should be placed after the MaxCore statement
Your calculation utilizes the atom-pairwise dispersion correction
with the Becke-Johnson damping scheme (D3BJ)


Warning: RI is on but no J-basis has been assigned. Assigning Def2/J (nothing to worry about!)
================================================================================

----- Orbital basis set information -----
Your calculation utilizes the basis: def2-TZVP
   F. Weigend and R. Ahlrichs, Phys. Chem. Chem. Phys. 7, 3297 (2005).

----- AuxJ basis set information -----
Your calculation utilizes the auxiliary basis: def2/J
   F. Weigend, Phys. Chem. Chem. Phys. 8, 1057 (2006).

================================================================================
                                        WARNINGS
                       Please study these warnings very carefully!
================================================================================


WARNING: Geometry Optimization
  ===> : Switching off AutoStart
         For restart on a previous wavefunction, please use MOREAD

================================================================================
                                       INPUT FILE
================================================================================
NAME = honokiol3_EC2.inp
|  1> ! OPT B3LYP def2-TZVP TightSCF D3BJ RIJCOSX
|  2> 
|  3> %maxcore 5000
|  4> 
|  5> %pal
|  6> nprocs 35
|  7> end
|  8> 
|  9> * xyz 0 1
| 10> O           1.89158569380157      1.16463365665645      2.79438872141678
| 11>   O          -3.64882269256774     -1.81817660790958      2.11747949119667
| 12>   C           1.44316634155316      0.13080314126267      0.62825648785967
| 13>   C           0.11538407598278     -0.39740172100810      1.01184473689290
| 14>   C          -2.24259759716701     -0.72304535219980      0.46989566614975
| 15>   C          -0.97356254921026     -0.26040806439874      0.15000690774363
| 16>   C           3.16646171249949      0.35955599673255     -1.09596260558190
| 17>   C           1.91717346326222     -0.07442689885325     -0.67061862612875
| 18>   C           2.26294735935594      0.83886323487284      1.52504608767427
| 19>   C          -0.08879398095534     -1.06818112155214      2.21950541091958
| 20>   C          -2.41584037777853     -1.38403467310325      1.69089994047146
| 21>   C          -3.40698415804126     -0.46706864784071     -0.45873036185946
| 22>   C           3.64658337138617      0.09373940378376     -2.50832322922454
| 23>   C           3.97497407932651      1.01646363227214     -0.17039764516529
| 24>   C          -1.33966636897099     -1.56563141446638      2.55039108517949
| 25>   C           3.52969065890056      1.25383801383868      1.12032027665559
| 26>   C          -4.09418113294279     -1.72755981511257     -0.90452695394370
| 27>   C           2.56132879626471      0.19604505796415     -3.53840975686248
| 28>   C          -5.38343863267966     -1.99933398248141     -0.72346936984171
| 29>   C           2.18979654974381     -0.79074308412867     -4.34355697806044
| 30>   H          -0.84586531867773      0.25674698812794     -0.78973694789062
| 31>   H           1.28670376171840     -0.60996552567226     -1.36851416678639
| 32>   H           0.73791443862726     -1.21330130851470      2.90119751623563
| 33>   H          -4.13614419880893      0.19309741508814      0.02323392689180
| 34>   H          -3.03145870582507      0.07012065957622     -1.33286553575989
| 35>   H           4.10582831788267     -0.89899608407932     -2.56309729408059
| 36>   H           4.43811207672778      0.81358978014478     -2.74117831213376
| 37>   H           4.95980564842641      1.35981383440998     -0.46516085628745
| 38>   H          -1.49426851149318     -2.10515578536582      3.47573358823986
| 39>   H           4.14175136533062      1.79205963955115      1.83274109293655
| 40>   H          -3.45813660188968     -2.46080934497189     -1.39291766860266
| 41>   H           2.04340407396438      1.14883280361209     -3.59059824318640
| 42>   H           0.92627741152088      1.24539345842103      2.87329238797375
| 43>   H          -4.20734394395521     -2.01341668788902      1.34814177082813
| 44>   H          -5.82265702368049     -2.92756778380355     -1.06532572802156
| 45>   H          -6.05081769501933     -1.28678074675631     -0.24896278584221
| 46>   H           1.39305650608287     -0.66106863803713     -5.06486743828718
| 47>   H           2.67045713469409     -1.76287563803200     -4.30934751952368
| 48>   H          -4.68408734851104      0.63925312813632      2.70538668459403
| 49>   H          -3.36727510620363     -0.51963056223015      4.35855773297144
| 50>   O          -2.03279405933999      1.05586097683187      4.44066791685371
| 51>   C          -3.37917597766881      0.55897943547078      4.49747197663772
| 52>   C          -4.06530317688641      1.27012018412372      3.33707806805616
| 53>   C          -1.84102471071690      1.69896371602860      3.28341634973691
| 54>   O          -0.79859718290823      2.14044147101806      2.90495442863748
| 55>   O          -3.00026523295021      1.78712726212381      2.58048937802338
| 56>   H          -4.83606885187746      2.31677273327107      3.78539278472540
| 57>   H          -3.81890783297290      0.83114384766559      5.45358129434016
| 58>   H           1.84569617045459      4.77798660562657     -0.74746193487954
| 59>   H           2.22258089692954      3.13613358003100     -0.12762800657795
| 60>   C           1.47826550086574      3.76367577309153     -0.61383029948227
| 61>   H          -0.45815413835934      4.98032393695281      0.07385824681593
| 62>   C           0.14246428593278      3.73794391590653      0.11767013900924
| 63>   H           0.15945156932789      3.41084172797582      1.15272789728500
| 64>   O           1.16331838010951      3.20476612903557     -1.89988610862487
| 65>   O          -0.63024373290207      2.84260766106493     -0.63651318270747
| 66>   C          -0.03778093435335      2.60492518546774     -1.84422284273750
| 67>   O          -0.52520667625877      1.94154342046979     -2.70228420927182
| 68> *
| 69> 
| 70>                          ****END OF INPUT****
================================================================================

                       *****************************
                       * Geometry Optimization Run *
                       *****************************

Geometry optimization settings:
Update method            Update   .... BFGS
Choice of coordinates    CoordSys .... (2022) Redundant Internals
Initial Hessian          InHess   .... Almloef's Model
Max. no of cycles        MaxIter  .... 174

Convergence Tolerances:
Energy Change            TolE     ....  5.0000e-06 Eh
Max. Gradient            TolMAXG  ....  3.0000e-04 Eh/bohr
RMS Gradient             TolRMSG  ....  1.0000e-04 Eh/bohr
Max. Displacement        TolMAXD  ....  4.0000e-03 bohr
RMS Displacement         TolRMSD  ....  2.0000e-03 bohr
Strict Convergence                .... False

------------------------------------------------------------------------------
                        ORCA OPTIMIZATION COORDINATE SETUP
------------------------------------------------------------------------------

The optimization will be done in redundant internal coordinates (2022)
Making redundant internal coordinates   ...  (2022 redundants) done
Evaluating the initial hessian          ...  (Almloef) done
Evaluating the coordinates              ...  done
Calculating the B-matrix                .... done
Calculating the G-matrix                .... done
Diagonalizing the G-matrix              .... done
Small eigenvalue found = 4.596e-03
Small eigenvalue found = 7.989e-03
Small eigenvalue found = 1.129e-02
Small eigenvalue found = 1.655e-02
Small eigenvalue found = 2.437e-02
The first mode is                       ....  275
The number of degrees of freedom        ....  168

    -----------------------------------------------------------------
                    Redundant Internal Coordinates


    -----------------------------------------------------------------
         Definition                    Initial Value    Approx d2E/dq
    -----------------------------------------------------------------
      1. B(C   3,C   2)                  1.4796         0.449599   
      2. B(C   5,C   4)                  1.3881         0.629181   
      3. B(C   5,C   3)                  1.3955         0.612367   
      4. B(C   7,C   2)                  1.3978         0.607120   
      5. B(C   7,C   6)                  1.3892         0.626550   
      6. B(C   8,C   2)                  1.4063         0.588526   
      7. B(C   8,O   0)                  1.3621         0.620037   
      8. B(C   9,C   3)                  1.3965         0.610162   
      9. B(C  10,C   4)                  1.3992         0.604024   
     10. B(C  10,O   1)                  1.3750         0.591244   
     11. B(C  11,C   4)                  1.5112         0.400316   
     12. B(C  12,C   6)                  1.5152         0.394397   
     13. B(C  13,C   6)                  1.3935         0.616775   
     14. B(C  14,C   9)                  1.3862         0.633518   
     15. B(C  14,C  10)                  1.3892         0.626655   
     16. B(C  15,C   8)                  1.3931         0.617788   
     17. B(C  15,C  13)                  1.3858         0.634398   
     18. B(C  16,C  11)                  1.5033         0.412124   
     19. B(C  17,C  12)                  1.4998         0.417447   
     20. B(C  18,C  16)                  1.3300         0.778947   
     21. B(C  19,C  17)                  1.3267         0.788461   
     22. B(H  20,C   5)                  1.0802         0.373273   
     23. B(H  21,C   7)                  1.0823         0.370445   
     24. B(H  22,C   9)                  1.0813         0.371794   
     25. B(H  23,C  11)                  1.0953         0.353097   
     26. B(H  24,C  11)                  1.0926         0.356719   
     27. B(H  25,C  12)                  1.0952         0.353306   
     28. B(H  26,C  12)                  1.0950         0.353606   
     29. B(H  27,C  13)                  1.0838         0.368368   
     30. B(H  28,C  14)                  1.0822         0.370511   
     31. B(H  29,C  15)                  1.0825         0.370136   
     32. B(H  30,C  16)                  1.0866         0.364605   
     33. B(H  31,C  17)                  1.0857         0.365815   
     34. B(H  32,O   0)                  0.9719         0.497736   
     35. B(H  33,O   1)                  0.9705         0.500211   
     36. B(H  34,C  18)                  1.0823         0.370417   
     37. B(H  35,C  18)                  1.0855         0.366119   
     38. B(H  36,C  19)                  1.0825         0.370101   
     39. B(H  37,C  19)                  1.0850         0.366762   
     40. B(H  39,O   1)                  2.6054         0.001233   
     41. B(C  41,O  40)                  1.4363         0.472128   
     42. B(C  41,H  39)                  1.0876         0.363311   
     43. B(C  42,C  41)                  1.5241         0.381703   
     44. B(C  42,H  38)                  1.0862         0.365106   
     45. B(C  43,O  40)                  1.3378         0.678000   
     46. B(O  44,H  32)                  1.9435         0.014022   
     47. B(O  44,C  43)                  1.1936         1.151186   
     48. B(O  45,C  43)                  1.3586         0.628083   
     49. B(O  45,C  42)                  1.4050         0.529593   
     50. B(H  46,C  42)                  1.3750         0.126406   
     51. B(H  47,C  41)                  1.0870         0.364082   
     52. B(H  49,H  29)                  3.0550         0.000051   
     53. B(H  49,C   8)                  2.8303         0.000602   
     54. B(H  49,C  13)                  2.7506         0.000807   
     55. B(H  49,C  15)                  2.6094         0.001356   
     56. B(C  50,H  49)                  1.0882         0.362472   
     57. B(C  50,H  48)                  1.0871         0.364017   
     58. B(C  52,H  51)                  1.3806         0.123801   
     59. B(C  52,C  50)                  1.5232         0.383033   
     60. B(H  53,O  44)                  2.3669         0.002961   
     61. B(H  53,C  52)                  1.0856         0.365905   
     62. B(H  53,H  32)                  2.8701         0.000100   
     63. B(O  54,C  50)                  1.4372         0.470532   
     64. B(O  54,H  31)                  2.8036         0.000595   
     65. B(O  55,H  20)                  2.5994         0.001260   
     66. B(O  55,C  52)                  1.4027         0.534138   
     67. B(O  55,H  53)                  2.0366         0.009960   
     68. B(C  56,O  55)                  1.3660         0.611084   
     69. B(C  56,O  54)                  1.3437         0.663336   
     70. B(C  56,H  20)                  2.6979         0.000980   
     71. B(O  57,H  20)                  2.5689         0.001410   
     72. B(O  57,C  56)                  1.1891         1.170628   
     73. B(O  57,H  31)                  2.8311         0.000538   
     74. A(C   8,O   0,H  32)          111.4894         0.367355   
     75. A(C  10,O   1,H  33)          109.4888         0.364684   
     76. A(C   3,C   2,C   7)          119.5252         0.408337   
     77. A(C   3,C   2,C   8)          122.5175         0.406097   
     78. A(C   7,C   2,C   8)          117.9572         0.428405   
     79. A(C   2,C   3,C   9)          121.7962         0.408699   
     80. A(C   2,C   3,C   5)          120.3396         0.408960   
     81. A(C   5,C   3,C   9)          117.8502         0.431856   
     82. A(C   5,C   4,C  11)          120.4214         0.402578   
     83. A(C   5,C   4,C  10)          118.1476         0.433176   
     84. A(C  10,C   4,C  11)          121.3900         0.399695   
     85. A(C   3,C   5,H  20)          119.4743         0.354319   
     86. A(C   4,C   5,H  20)          117.9123         0.355950   
     87. A(C   3,C   5,C   4)          122.5725         0.434247   
     88. A(C  12,C   6,C  13)          121.1951         0.400117   
     89. A(C   7,C   6,C  13)          117.7524         0.434480   
     90. A(C   7,C   6,C  12)          121.0325         0.401226   
     91. A(C   2,C   7,C   6)          122.9277         0.433248   
     92. A(C   2,C   7,H  21)          118.3138         0.353347   
     93. A(C   6,C   7,H  21)          118.7506         0.355239   
     94. A(C  15,C   8,H  49)           66.5177         0.151041   
     95. A(O   0,C   8,H  49)          110.2522         0.150581   
     96. A(O   0,C   8,C  15)          116.5783         0.430954   
     97. A(C   2,C   8,H  49)           91.6040         0.150364   
     98. A(O   0,C   8,C   2)          123.7639         0.427219   
     99. A(C   2,C   8,C  15)          119.6562         0.429745   
    100. A(C  14,C   9,H  22)          119.4231         0.356126   
    101. A(C   3,C   9,C  14)          120.7127         0.434502   
    102. A(C   3,C   9,H  22)          119.8603         0.353864   
    103. A(C   4,C  10,C  14)          120.3804         0.432863   
    104. A(O   1,C  10,C  14)          117.4798         0.428387   
    105. A(O   1,C  10,C   4)          122.0664         0.425573   
    106. A(C   4,C  11,C  16)          113.1057         0.373942   
    107. A(C   4,C  11,H  23)          110.1589         0.326970   
    108. A(H  23,C  11,H  24)          106.5296         0.289516   
    109. A(C  16,C  11,H  24)          109.3981         0.329095   
    110. A(C   4,C  11,H  24)          108.0653         0.327520   
    111. A(C  16,C  11,H  23)          109.3623         0.328541   
    112. A(H  25,C  12,H  26)          106.3892         0.289145   
    113. A(C  17,C  12,H  26)          109.4013         0.329316   
    114. A(C   6,C  12,H  26)          108.1767         0.326246   
    115. A(C  17,C  12,H  25)          109.3243         0.329270   
    116. A(C   6,C  12,H  25)          109.7859         0.326201   
    117. A(C   6,C  12,C  17)          113.5122         0.373809   
    118. A(C   6,C  13,H  49)           90.2269         0.155266   
    119. A(C  15,C  13,H  27)          119.4061         0.355650   
    120. A(C   6,C  13,H  27)          119.7294         0.353955   
    121. A(H  27,C  13,H  49)          109.8164         0.140002   
    122. A(C  15,C  13,H  49)           69.4403         0.155690   
    123. A(C   6,C  13,C  15)          120.8587         0.435454   
    124. A(C  10,C  14,H  28)          118.9146         0.355260   
    125. A(C   9,C  14,H  28)          120.7899         0.355917   
    126. A(C   9,C  14,C  10)          120.2945         0.436594   
    127. A(C   8,C  15,H  49)           84.1645         0.163548   
    128. A(C  13,C  15,H  29)          121.0932         0.355939   
    129. A(C   8,C  15,H  29)          118.1017         0.354341   
    130. A(C   8,C  15,C  13)          120.7793         0.435583   
    131. A(H  29,C  15,H  49)          103.8462         0.146417   
    132. A(C  13,C  15,H  49)           80.7400         0.163997   
    133. A(C  11,C  16,C  18)          125.0376         0.420277   
    134. A(C  18,C  16,H  30)          119.3879         0.367683   
    135. A(C  11,C  16,H  30)          115.5646         0.330286   
    136. A(C  12,C  17,C  19)          124.6624         0.422155   
    137. A(C  19,C  17,H  31)          119.3391         0.368659   
    138. A(C  12,C  17,H  31)          115.9806         0.331169   
    139. A(H  34,C  18,H  35)          116.8436         0.292898   
    140. A(C  16,C  18,H  34)          121.7118         0.368682   
    141. A(C  16,C  18,H  35)          121.4241         0.367944   
    142. A(H  36,C  19,H  37)          117.0249         0.292939   
    143. A(C  17,C  19,H  37)          121.5492         0.368823   
    144. A(C  17,C  19,H  36)          121.4259         0.369397   
    145. A(O  55,H  20,C  56)           29.8136         0.103568   
    146. A(C  56,H  20,O  57)           25.9473         0.103942   
    147. A(C   5,H  20,C  56)          142.3834         0.142444   
    148. A(O  55,H  20,O  57)           51.7635         0.104634   
    149. A(C   5,H  20,O  55)          115.7719         0.144921   
    150. A(C   5,H  20,O  57)          167.5348         0.146356   
    151. A(C  15,H  29,H  49)           56.0299         0.110803   
    152. A(C  17,H  31,O  54)          139.8456         0.135974   
    153. A(O  54,H  31,O  57)           47.2061         0.099608   
    154. A(C  17,H  31,O  57)          131.5627         0.134909   
    155. A(O  44,H  32,H  53)           54.9135         0.100979   
    156. A(O   0,H  32,O  44)          157.0841         0.190764   
    157. A(O   0,H  32,H  53)          106.2240         0.115872   
    158. A(C  41,O  40,C  43)          109.5668         0.414636   
    159. A(H  39,C  41,O  40)          109.1347         0.335579   
    160. A(C  42,C  41,H  47)          111.7605         0.326057   
    161. A(O  40,C  41,H  47)          109.1102         0.335697   
    162. A(H  39,C  41,H  47)          111.4129         0.291749   
    163. A(O  40,C  41,C  42)          103.3249         0.377303   
    164. A(H  39,C  41,C  42)          111.7413         0.325944   
    165. A(O  45,C  42,H  46)          108.6870         0.288282   
    166. A(C  41,C  42,H  46)          111.0564         0.275581   
    167. A(H  38,C  42,H  46)          108.2028         0.248756   
    168. A(C  41,C  42,O  45)          103.9117         0.384896   
    169. A(H  38,C  42,O  45)          109.4130         0.342355   
    170. A(H  38,C  42,C  41)          115.3541         0.326208   
    171. A(O  40,C  43,O  45)          110.8833         0.436367   
    172. A(O  44,C  43,O  45)          123.8575         0.480586   
    173. A(O  40,C  43,O  44)          125.2591         0.487423   
    174. A(H  32,O  44,H  53)           82.8705         0.120905   
    175. A(C  43,O  44,H  53)          141.8819         0.189389   
    176. A(H  32,O  44,C  43)          127.5822         0.231743   
    177. A(C  42,O  45,C  43)          110.1400         0.417478   
    178. A(C  13,H  49,C  15)           29.8197         0.103345   
    179. A(C  13,H  49,C  50)          150.8342         0.139816   
    180. A(C  15,H  49,C  50)          166.4790         0.146146   
    181. A(C   8,H  49,H  29)           42.2024         0.094098   
    182. A(C  13,H  49,H  29)           43.1719         0.094447   
    183. A(C  15,H  49,H  29)           20.1238         0.095126   
    184. A(H  29,H  49,C  50)          165.9550         0.110700   
    185. A(C   8,H  49,C  13)           51.2805         0.100938   
    186. A(C   8,H  49,C  15)           29.3178         0.102425   
    187. A(C   8,H  49,C  50)          137.6226         0.136559   
    188. A(C  52,C  50,O  54)          103.3553         0.377309   
    189. A(H  49,C  50,O  54)          108.9917         0.335261   
    190. A(H  48,C  50,O  54)          109.0828         0.335498   
    191. A(H  49,C  50,C  52)          112.0567         0.326006   
    192. A(H  48,C  50,C  52)          111.7909         0.326234   
    193. A(H  48,C  50,H  49)          111.2118         0.291635   
    194. A(H  53,C  52,O  55)          109.2033         0.342971   
    195. A(H  51,C  52,O  55)          108.5223         0.287729   
    196. A(C  50,C  52,O  55)          103.6316         0.385703   
    197. A(H  51,C  52,H  53)          107.9499         0.248084   
    198. A(C  50,C  52,H  53)          116.6943         0.326512   
    199. A(C  50,C  52,H  51)          110.5526         0.274850   
    200. A(O  44,H  53,C  52)          149.4518         0.156541   
    201. A(H  32,H  53,O  44)           42.2159         0.097425   
    202. A(H  32,H  53,C  52)          143.4220         0.114360   
    203. A(H  31,O  54,C  56)           88.7519         0.150632   
    204. A(H  31,O  54,C  50)          139.1160         0.146023   
    205. A(C  50,O  54,C  56)          109.4156         0.412781   
    206. A(H  20,O  55,C  56)           79.0923         0.160693   
    207. A(H  20,O  55,C  52)          135.4292         0.158543   
    208. A(C  52,O  55,C  56)          110.3342         0.416076   
    209. A(H  20,C  56,O  57)           70.9555         0.168378   
    210. A(H  20,C  56,O  55)           71.0942         0.157518   
    211. A(H  20,C  56,O  54)          132.2570         0.158802   
    212. A(O  55,C  56,O  57)          123.8666         0.479640   
    213. A(O  54,C  56,O  57)          125.8430         0.486962   
    214. A(O  54,C  56,O  55)          110.2813         0.432513   
    215. A(H  20,O  57,C  56)           83.0972         0.174188   
    216. A(H  20,O  57,H  31)           99.3935         0.101894   
    217. A(H  31,O  57,C  56)           90.6143         0.157499   
    218. D(C   5,C   3,C   2,C   8)    136.4875         0.013780   
    219. D(C   9,C   3,C   2,C   8)    -44.9014         0.013780   
    220. D(C   9,C   3,C   2,C   7)    135.0052         0.013780   
    221. D(C   5,C   3,C   2,C   7)    -43.6058         0.013780   
    222. D(H  20,C   5,C   3,C   2)     -1.5364         0.025910   
    223. D(C   4,C   5,C   3,C   2)   -179.1606         0.025910   
    224. D(C   3,C   5,C   4,C  11)    175.8728         0.027443   
    225. D(C   4,C   5,C   3,C   9)      2.1746         0.025910   
    226. D(H  20,C   5,C   4,C  10)   -179.4889         0.027443   
    227. D(H  20,C   5,C   4,C  11)     -1.7866         0.027443   
    228. D(H  20,C   5,C   3,C   9)    179.7987         0.025910   
    229. D(C   3,C   5,C   4,C  10)     -1.8295         0.027443   
    230. D(H  21,C   7,C   2,C   8)   -179.3920         0.025443   
    231. D(H  21,C   7,C   2,C   3)      0.6972         0.025443   
    232. D(C   6,C   7,C   2,C   8)      1.6449         0.025443   
    233. D(C   6,C   7,C   2,C   3)   -178.2659         0.025443   
    234. D(C   2,C   7,C   6,C  12)    178.9810         0.027200   
    235. D(C   2,C   7,C   6,C  13)      0.5853         0.027200   
    236. D(H  21,C   7,C   6,C  13)   -178.3735         0.027200   
    237. D(H  21,C   7,C   6,C  12)      0.0222         0.027200   
    238. D(O   0,C   8,C   2,C   7)    176.5311         0.025881   
    239. D(C  15,C   8,C   2,C   3)    176.9173         0.025881   
    240. D(C  15,C   8,C   2,C   7)     -2.9907         0.025881   
    241. D(C   2,C   8,O   0,H  32)    -27.0413         0.031131   
    242. D(O   0,C   8,C   2,C   3)     -3.5609         0.025881   
    243. D(H  49,C   8,C   2,C   3)   -119.3631         0.025881   
    244. D(H  49,C   8,O   0,H  32)     79.3713         0.031131   
    245. D(C  15,C   8,O   0,H  32)    152.4941         0.031131   
    246. D(C  14,C   9,C   3,C   2)   -179.3534         0.025713   
    247. D(C  14,C   9,C   3,C   5)     -0.7091         0.025713   
    248. D(H  22,C   9,C   3,C   2)     -0.0815         0.025713   
    249. D(H  22,C   9,C   3,C   5)    178.5627         0.025713   
    250. D(C  14,C  10,C   4,C  11)   -177.6681         0.025170   
    251. D(C  14,C  10,C   4,C   5)      0.0108         0.025170   
    252. D(C   4,C  10,O   1,H  33)     28.4244         0.028110   
    253. D(O   1,C  10,C   4,C   5)    176.8178         0.025170   
    254. D(C  14,C  10,O   1,H  33)   -154.6805         0.028110   
    255. D(O   1,C  10,C   4,C  11)     -0.8612         0.025170   
    256. D(H  24,C  11,C   4,C   5)      1.5945         0.011892   
    257. D(H  23,C  11,C   4,C  10)     63.2106         0.011892   
    258. D(H  23,C  11,C   4,C   5)   -114.4161         0.011892   
    259. D(C  16,C  11,C   4,C  10)    -59.5146         0.011892   
    260. D(C  16,C  11,C   4,C   5)    122.8587         0.011892   
    261. D(H  25,C  12,C   6,C   7)    -85.3565         0.011559   
    262. D(H  25,C  12,C   6,C  13)     92.9838         0.011559   
    263. D(C  17,C  12,C   6,C  13)   -144.3304         0.011559   
    264. D(C  17,C  12,C   6,C   7)     37.3293         0.011559   
    265. D(H  26,C  12,C   6,C   7)    158.9391         0.011559   
    266. D(H  49,C  13,C   6,C   7)    -67.4910         0.028585   
    267. D(H  27,C  13,C   6,C  12)      0.9961         0.028585   
    268. D(C  15,C  13,C   6,C  12)   -179.8837         0.028585   
    269. D(H  27,C  13,C   6,C   7)    179.3891         0.028585   
    270. D(C  15,C  13,C   6,C   7)     -1.4908         0.028585   
    271. D(H  28,C  14,C  10,O   1)      4.7952         0.027209   
    272. D(C   9,C  14,C  10,C   4)      1.3893         0.027209   
    273. D(C   9,C  14,C  10,O   1)   -175.5608         0.027209   
    274. D(H  28,C  14,C  10,C   4)   -178.2547         0.027209   
    275. D(H  28,C  14,C   9,H  22)     -0.6666         0.027847   
    276. D(H  28,C  14,C   9,C   3)    178.6084         0.027847   
    277. D(C  10,C  14,C   9,H  22)    179.6962         0.027847   
    278. D(C  10,C  14,C   9,C   3)     -1.0288         0.027847   
    279. D(C  13,C  15,C   8,C   2)      2.1733         0.030835   
    280. D(C  13,C  15,C   8,O   0)   -177.3823         0.030835   
    281. D(H  29,C  15,C  13,H  27)      1.1325         0.032639   
    282. D(H  29,C  15,C  13,C   6)   -177.9905         0.032639   
    283. D(C   8,C  15,C  13,H  49)     77.4661         0.032639   
    284. D(C   8,C  15,C  13,H  27)    179.2501         0.032639   
    285. D(C   8,C  15,C  13,C   6)      0.1271         0.032639   
    286. D(H  29,C  15,C  13,H  49)   -100.6514         0.032639   
    287. D(H  29,C  15,C   8,H  49)    102.5997         0.030835   
    288. D(H  29,C  15,C   8,C   2)   -179.6542         0.030835   
    289. D(H  29,C  15,C   8,O   0)      0.7903         0.030835   
    290. D(C  13,C  15,C   8,H  49)    -75.5729         0.030835   
    291. D(H  30,C  16,C  11,H  23)   -179.6247         0.012575   
    292. D(H  30,C  16,C  11,C   4)    -56.4579         0.012575   
    293. D(C  18,C  16,C  11,H  24)   -117.1068         0.012575   
    294. D(C  18,C  16,C  11,H  23)     -0.7822         0.012575   
    295. D(C  18,C  16,C  11,C   4)    122.3846         0.012575   
    296. D(H  31,C  17,C  12,H  25)   -178.9165         0.012891   
    297. D(H  31,C  17,C  12,C   6)     58.1434         0.012891   
    298. D(C  19,C  17,C  12,H  26)    118.7751         0.012891   
    299. D(C  19,C  17,C  12,H  25)      2.6388         0.012891   
    300. D(C  19,C  17,C  12,C   6)   -120.3013         0.012891   
    301. D(H  35,C  18,C  16,C  11)      1.8467         0.043600   
    302. D(H  34,C  18,C  16,H  30)     -1.0526         0.043600   
    303. D(H  34,C  18,C  16,C  11)   -179.8542         0.043600   
    304. D(H  35,C  18,C  16,H  30)   -179.3518         0.043600   
    305. D(H  37,C  19,C  17,H  31)   -178.8824         0.044784   
    306. D(H  37,C  19,C  17,C  12)     -0.4863         0.044784   
    307. D(H  36,C  19,C  17,H  31)      1.1515         0.044784   
    308. D(H  36,C  19,C  17,C  12)    179.5476         0.044784   
    309. D(C  56,H  20,C   5,C   3)    -56.0648         0.144641   
    310. D(O  55,H  20,C   5,C   4)    103.8341         0.144641   
    311. D(O  55,H  20,C   5,C   3)    -73.9002         0.144641   
    312. D(O  57,H  20,C   5,C   4)    104.3246         0.144641   
    313. D(O  57,H  20,C   5,C   3)    -73.4098         0.144641   
    314. D(H  49,H  29,C  15,C  13)     87.4271         0.129892   
    315. D(H  49,H  29,C  15,C   8)    -90.7395         0.129892   
    316. D(O  57,H  31,C  17,C  19)     73.9382         0.126222   
    317. D(O  57,H  31,C  17,C  12)   -104.5943         0.126222   
    318. D(O  54,H  31,C  17,C  19)    143.0173         0.126222   
    319. D(O  54,H  31,C  17,C  12)    -35.5153         0.126222   
    320. D(H  53,H  32,O   0,C   8)    -62.8482         0.308933   
    321. D(O  44,H  32,O   0,C   8)    -94.7303         0.308933   
    322. D(H  47,C  41,O  40,C  43)   -131.4084         0.017573   
    323. D(C  42,C  41,O  40,C  43)    -12.3783         0.017573   
    324. D(H  39,C  41,O  40,C  43)    106.6409         0.017573   
    325. D(O  45,C  42,C  41,H  47)    131.6431         0.011607   
    326. D(O  45,C  42,C  41,O  40)     14.4622         0.011607   
    327. D(O  45,C  42,C  41,H  39)   -102.7384         0.011607   
    328. D(H  38,C  42,C  41,H  47)   -108.6023         0.011607   
    329. D(H  38,C  42,C  41,O  40)    134.2168         0.011607   
    330. D(H  38,C  42,C  41,H  39)     17.0162         0.011607   
    331. D(O  45,C  43,O  40,C  41)      5.4682         0.034220   
    332. D(O  44,C  43,O  40,C  41)   -174.4745         0.034220   
    333. D(H  53,O  44,C  43,O  45)      4.8140         0.125957   
    334. D(H  53,O  44,C  43,O  40)   -175.2505         0.125957   
    335. D(H  32,O  44,C  43,O  45)   -131.8355         0.125957   
    336. D(H  32,O  44,C  43,O  40)     48.1000         0.125957   
    337. D(H  53,O  44,H  32,O   0)     38.2985         0.001614   
    338. D(C  43,O  44,H  32,H  53)    154.7199         0.001614   
    339. D(C  43,O  44,H  32,O   0)   -166.9815         0.001614   
    340. D(C  42,O  45,C  43,O  44)   -175.2839         0.028998   
    341. D(C  42,O  45,C  43,O  40)      4.7724         0.028998   
    342. D(C  43,O  45,C  42,H  46)    106.2387         0.022271   
    343. D(C  43,O  45,C  42,C  41)    -12.0893         0.022271   
    344. D(C  43,O  45,C  42,H  38)   -135.8023         0.022271   
    345. D(C  13,H  49,H  29,C  15)    -39.0475         0.001500   
    346. D(C  50,H  49,H  29,C  15)    137.3410         0.001500   
    347. D(C   8,H  49,C  15,H  29)   -117.5467         0.001501   
    348. D(C   8,H  49,C  15,C  13)    122.5376         0.001501   
    349. D(C  13,H  49,C  15,H  29)    119.9157         0.001501   
    350. D(C  13,H  49,C  15,C   8)   -122.5376         0.001501   
    351. D(C  50,H  49,C  15,H  29)   -135.3017         0.001501   
    352. D(C  50,H  49,C  15,C   8)    -17.7549         0.001501   
    353. D(C   8,H  49,C  13,C  15)    -31.9433         0.001500   
    354. D(C   8,H  49,C  13,C   6)     91.1726         0.001500   
    355. D(C  15,H  49,C  13,H  27)   -114.9766         0.001500   
    356. D(C  15,H  49,C  13,C   6)    123.1159         0.001500   
    357. D(C  50,H  49,C  13,H  27)     92.6607         0.001500   
    358. D(C  50,H  49,C  13,C  15)   -152.3626         0.001500   
    359. D(C  50,H  49,C  15,C  13)    104.7827         0.001501   
    360. D(C  50,H  49,C  13,C   6)    -29.2468         0.001500   
    361. D(C  13,H  49,C   8,C   2)    -89.3371         0.001500   
    362. D(C  13,H  49,C   8,O   0)    143.5808         0.001500   
    363. D(C  15,H  49,C   8,C   2)   -121.8379         0.001500   
    364. D(C  15,H  49,C   8,O   0)    111.0800         0.001500   
    365. D(C  50,H  49,C   8,C  15)    173.9279         0.001500   
    366. D(C  50,H  49,C   8,C   2)     52.0900         0.001500   
    367. D(C   8,H  49,H  29,C  15)     40.2622         0.001500   
    368. D(C  50,H  49,C   8,O   0)    -74.9921         0.001500   
    369. D(C  52,C  50,H  49,C   8)     26.5023         0.155129   
    370. D(C  52,C  50,H  49,C  13)    119.9151         0.155129   
    371. D(C  52,C  50,H  49,C  15)     39.3016         0.155129   
    372. D(H  48,C  50,H  49,H  29)     70.9257         0.155129   
    373. D(H  48,C  50,H  49,C   8)    152.4394         0.155129   
    374. D(H  48,C  50,H  49,C  13)   -114.1477         0.155129   
    375. D(H  48,C  50,H  49,C  15)    165.2387         0.155129   
    376. D(H  53,C  52,C  50,O  54)    136.9904         0.011684   
    377. D(H  53,C  52,C  50,H  49)     19.7914         0.011684   
    378. D(H  53,C  52,C  50,H  48)   -105.8292         0.011684   
    379. D(H  51,C  52,C  50,O  54)    -99.1662         0.011684   
    380. D(H  51,C  52,C  50,H  49)    143.6349         0.011684   
    381. D(H  51,C  52,C  50,H  48)     18.0143         0.011684   
    382. D(H  32,H  53,C  52,O  55)     60.6043         0.148535   
    383. D(H  32,H  53,C  52,C  50)    -56.4266         0.148535   
    384. D(O  44,H  53,C  52,O  55)    -20.0792         0.148535   
    385. D(O  44,H  53,C  52,H  51)     97.7239         0.148535   
    386. D(O  44,H  53,C  52,C  50)   -137.1101         0.148535   
    387. D(H  32,H  53,O  44,C  43)   -146.7534         0.001506   
    388. D(C  52,H  53,O  44,H  32)    118.9338         0.001506   
    389. D(C  52,H  53,O  44,C  43)    -27.8196         0.001506   
    390. D(O  44,H  53,H  32,O   0)   -165.4438         0.001500   
    391. D(H  32,H  53,C  52,H  51)    178.4075         0.148535   
    392. D(C  52,H  53,H  32,O  44)   -131.7164         0.001500   
    393. D(C  52,H  53,H  32,O   0)     62.8399         0.001500   
    394. D(H  31,O  54,C  50,H  49)     -7.0647         0.018917   
    395. D(H  31,O  54,C  50,H  48)    114.5335         0.018917   
    396. D(C  56,O  54,C  50,C  52)    -14.5688         0.018917   
    397. D(C  56,O  54,C  50,H  49)    104.7645         0.018917   
    398. D(C  56,O  54,C  50,H  48)   -133.6373         0.018917   
    399. D(C  56,O  54,H  31,O  57)     13.3552         0.001500   
    400. D(C  56,O  54,H  31,C  17)    -94.3867         0.001500   
    401. D(C  50,O  54,H  31,O  57)    132.2256         0.001500   
    402. D(C  50,O  54,H  31,C  17)     24.4837         0.001500   
    403. D(H  20,O  55,C  52,H  53)    -44.0229         0.026446   
    404. D(H  20,O  55,C  52,H  51)   -161.4656         0.026446   
    405. D(H  20,O  55,C  52,C  50)     81.0036         0.026446   
    406. D(C  56,O  55,C  52,H  53)   -139.1075         0.026446   
    407. D(C  56,O  55,C  52,H  51)    103.4497         0.026446   
    408. D(C  56,O  55,C  52,C  50)    -14.0811         0.026446   
    409. D(C  56,O  55,H  20,O  57)    -21.9523         0.001501   
    410. D(C  56,O  55,H  20,C   5)    157.9129         0.001501   
    411. D(C  52,O  55,H  20,C  56)   -107.9777         0.001501   
    412. D(C  52,O  55,H  20,O  57)   -129.9301         0.001501   
    413. D(C  52,O  55,H  20,C   5)     49.9352         0.001501   
    414. D(H  20,C  56,O  55,C  52)    134.6111         0.035280   
    415. D(O  57,C  56,O  55,H  20)     49.8164         0.035280   
    416. D(O  57,C  56,O  55,C  52)   -175.5725         0.035280   
    417. D(O  54,C  56,O  55,H  20)   -129.1402         0.035280   
    418. D(O  54,C  56,O  55,C  52)      5.4709         0.035280   
    419. D(H  20,C  56,O  54,C  50)    -75.9746         0.039212   
    420. D(O  57,C  56,O  54,H  31)    -29.8574         0.039212   
    421. D(O  57,C  56,O  54,C  50)   -172.4310         0.039212   
    422. D(O  55,C  56,O  54,H  31)    149.0739         0.039212   
    423. D(O  55,C  56,O  54,C  50)      6.5003         0.039212   
    424. D(O  57,C  56,H  20,C   5)   -171.5429         0.001501   
    425. D(O  55,C  56,H  20,O  57)    137.8484         0.001501   
    426. D(O  55,C  56,H  20,C   5)    -33.6945         0.001501   
    427. D(O  54,C  56,H  20,O  55)    100.5951         0.001501   
    428. D(O  54,C  56,H  20,O  57)   -121.5565         0.001501   
    429. D(O  54,C  56,H  20,C   5)     66.9005         0.001501   
    430. D(H  31,O  57,C  56,H  20)    -99.3879         0.142914   
    431. D(H  31,O  57,C  56,O  55)   -149.2609         0.142914   
    432. D(H  31,O  57,C  56,O  54)     29.5318         0.142914   
    433. D(H  20,O  57,C  56,O  54)    128.9198         0.142914   
    434. D(H  20,O  57,H  31,O  54)    -98.2329         0.001500   
    435. D(H  20,O  57,H  31,C  17)     26.5978         0.001500   
    436. D(C  56,O  57,H  31,O  54)    -15.1280         0.001500   
    437. D(C  56,O  57,H  31,C  17)    109.7027         0.001500   
    438. D(H  31,O  57,H  20,C  56)     89.4796         0.001501   
    439. D(H  20,O  57,C  56,O  55)    -49.8730         0.142914   
    440. D(H  31,O  57,H  20,O  55)    114.6168         0.001501   
    441. D(H  31,O  57,H  20,C   5)    114.0545         0.001501   
    442. D(C  56,O  57,H  20,O  55)     25.1372         0.001501   
    443. D(C  56,O  57,H  20,C   5)     24.5749         0.001501   
    -----------------------------------------------------------------

Number of atoms                         .... 58
Number of degrees of freedom            .... 443


         *************************************************************
         *                GEOMETRY OPTIMIZATION CYCLE   1            *
         *************************************************************
---------------------------------
CARTESIAN COORDINATES (ANGSTROEM)
---------------------------------
  O      1.891586    1.164634    2.794389
  O     -3.648823   -1.818177    2.117479
  C      1.443166    0.130803    0.628256
  C      0.115384   -0.397402    1.011845
  C     -2.242598   -0.723045    0.469896
  C     -0.973563   -0.260408    0.150007
  C      3.166462    0.359556   -1.095963
  C      1.917173   -0.074427   -0.670619
  C      2.262947    0.838863    1.525046
  C     -0.088794   -1.068181    2.219505
  C     -2.415840   -1.384035    1.690900
  C     -3.406984   -0.467069   -0.458730
  C      3.646583    0.093739   -2.508323
  C      3.974974    1.016464   -0.170398
  C     -1.339666   -1.565631    2.550391
  C      3.529691    1.253838    1.120320
  C     -4.094181   -1.727560   -0.904527
  C      2.561329    0.196045   -3.538410
  C     -5.383439   -1.999334   -0.723469
  C      2.189797   -0.790743   -4.343557
  H     -0.845865    0.256747   -0.789737
  H      1.286704   -0.609966   -1.368514
  H      0.737914   -1.213301    2.901198
  H     -4.136144    0.193097    0.023234
  H     -3.031459    0.070121   -1.332866
  H      4.105828   -0.898996   -2.563097
  H      4.438112    0.813590   -2.741178
  H      4.959806    1.359814   -0.465161
  H     -1.494269   -2.105156    3.475734
  H      4.141751    1.792060    1.832741
  H     -3.458137   -2.460809   -1.392918
  H      2.043404    1.148833   -3.590598
  H      0.926277    1.245393    2.873292
  H     -4.207344   -2.013417    1.348142
  H     -5.822657   -2.927568   -1.065326
  H     -6.050818   -1.286781   -0.248963
  H      1.393057   -0.661069   -5.064867
  H      2.670457   -1.762876   -4.309348
  H     -4.684087    0.639253    2.705387
  H     -3.367275   -0.519631    4.358558
  O     -2.032794    1.055861    4.440668
  C     -3.379176    0.558979    4.497472
  C     -4.065303    1.270120    3.337078
  C     -1.841025    1.698964    3.283416
  O     -0.798597    2.140441    2.904954
  O     -3.000265    1.787127    2.580489
  H     -4.836069    2.316773    3.785393
  H     -3.818908    0.831144    5.453581
  H      1.845696    4.777987   -0.747462
  H      2.222581    3.136134   -0.127628
  C      1.478266    3.763676   -0.613830
  H     -0.458154    4.980324    0.073858
  C      0.142464    3.737944    0.117670
  H      0.159452    3.410842    1.152728
  O      1.163318    3.204766   -1.899886
  O     -0.630244    2.842608   -0.636513
  C     -0.037781    2.604925   -1.844223
  O     -0.525207    1.941543   -2.702284

----------------------------
CARTESIAN COORDINATES (A.U.)
----------------------------
  NO LB      ZA    FRAG     MASS         X           Y           Z
   0 O     8.0000    0    15.999    3.574579    2.200839    5.280629
   1 O     8.0000    0    15.999   -6.895276   -3.435856    4.001456
   2 C     6.0000    0    12.011    2.727189    0.247182    1.187233
   3 C     6.0000    0    12.011    0.218044   -0.750980    1.912109
   4 C     6.0000    0    12.011   -4.237895   -1.366358    0.887974
   5 C     6.0000    0    12.011   -1.839767   -0.492100    0.283472
   6 C     6.0000    0    12.011    5.983745    0.679462   -2.071069
   7 C     6.0000    0    12.011    3.622933   -0.140646   -1.267286
   8 C     6.0000    0    12.011    4.276351    1.585222    2.881919
   9 C     6.0000    0    12.011   -0.167796   -2.018570    4.194257
  10 C     6.0000    0    12.011   -4.565277   -2.615446    3.195338
  11 C     6.0000    0    12.011   -6.438267   -0.882632   -0.866875
  12 C     6.0000    0    12.011    6.891044    0.177142   -4.740044
  13 C     6.0000    0    12.011    7.511612    1.920838   -0.322005
  14 C     6.0000    0    12.011   -2.531603   -2.958615    4.819541
  15 C     6.0000    0    12.011    6.670149    2.369410    2.117099
  16 C     6.0000    0    12.011   -7.736881   -3.264615   -1.709308
  17 C     6.0000    0    12.011    4.840210    0.370471   -6.686625
  18 C     6.0000    0    12.011  -10.173225   -3.778194   -1.367159
  19 C     6.0000    0    12.011    4.138116   -1.494288   -8.208133
  20 H     1.0000    0     1.008   -1.598454    0.485181   -1.492387
  21 H     1.0000    0     1.008    2.431518   -1.152668   -2.586117
  22 H     1.0000    0     1.008    1.394456   -2.292807    5.482469
  23 H     1.0000    0     1.008   -7.816180    0.364901    0.043906
  24 H     1.0000    0     1.008   -5.728627    0.132509   -2.518751
  25 H     1.0000    0     1.008    7.758891   -1.698856   -4.843552
  26 H     1.0000    0     1.008    8.386816    1.537462   -5.180076
  27 H     1.0000    0     1.008    9.372674    2.569676   -0.879027
  28 H     1.0000    0     1.008   -2.823758   -3.978168    6.568185
  29 H     1.0000    0     1.008    7.826776    3.386502    3.463379
  30 H     1.0000    0     1.008   -6.534931   -4.650256   -2.632233
  31 H     1.0000    0     1.008    3.861474    2.170979   -6.785247
  32 H     1.0000    0     1.008    1.750411    2.353453    5.429736
  33 H     1.0000    0     1.008   -7.950728   -3.804806    2.547619
  34 H     1.0000    0     1.008  -11.003227   -5.532301   -2.013174
  35 H     1.0000    0     1.008  -11.434388   -2.431663   -0.470471
  36 H     1.0000    0     1.008    2.632495   -1.249239   -9.571212
  37 H     1.0000    0     1.008    5.046433   -3.331352   -8.143487
  38 H     1.0000    0     1.008   -8.851642    1.208013    5.112440
  39 H     1.0000    0     1.008   -6.363228   -0.981959    8.236480
  40 O     8.0000    0    15.999   -3.841424    1.995288    8.391646
  41 C     6.0000    0    12.011   -6.385717    1.056318    8.498990
  42 C     6.0000    0    12.011   -7.682310    2.400179    6.306164
  43 C     6.0000    0    12.011   -3.479033    3.210576    6.204758
  44 O     8.0000    0    15.999   -1.509130    4.044848    5.489568
  45 O     8.0000    0    15.999   -5.669680    3.377181    4.876418
  46 H     1.0000    0     1.008   -9.138846    4.378066    7.153356
  47 H     1.0000    0     1.008   -7.216690    1.570634   10.305775
  48 H     1.0000    0     1.008    3.487860    9.029086   -1.412498
  49 H     1.0000    0     1.008    4.200069    5.926434   -0.241182
  50 C     6.0000    0    12.011    2.793517    7.112316   -1.159971
  51 H     1.0000    0     1.008   -0.865786    9.411448    0.139572
  52 C     6.0000    0    12.011    0.269218    7.063690    0.222364
  53 H     1.0000    0     1.008    0.301320    6.445557    2.178340
  54 O     8.0000    0    15.999    2.198353    6.056130   -3.590264
  55 O     8.0000    0    15.999   -1.190988    5.371750   -1.202836
  56 C     6.0000    0    12.011   -0.071396    4.922595   -3.485076
  57 O     8.0000    0    15.999   -0.992497    3.668985   -5.106577

--------------------------------
INTERNAL COORDINATES (ANGSTROEM)
--------------------------------
 O      0   0   0     0.000000000000     0.00000000     0.00000000
 O      1   0   0     6.328624516284     0.00000000     0.00000000
 C      1   2   0     2.441723633683    62.92082754     0.00000000
 C      3   1   2     1.479576313032    94.93163826   359.39816785
 C      2   1   3     2.427202905965    49.66516520   332.02276855
 C      5   2   1     1.388096549510   146.76962022    20.45672202
 C      3   1   2     2.448470193120   117.12332422   179.39383731
 C      7   3   1     1.389237123100    28.63201845   182.85190046
 C      1   2   3     1.362081706870    91.50602520   358.84530029
 C      4   3   1     1.396451927823   121.79621124   313.44195186
 C      2   1   3     1.375025352943    25.75697658     1.06193851
 C      5   2   1     1.511180477711    92.70225185   204.84511517
 C      7   3   1     1.515235229143   149.65716206   181.12331428
 C      7   3   1     1.393517271114    89.12168977     3.36991705
 C     10   4   3     1.386226480216   120.71271753   180.64664837
 C     14   7   3     1.385848720186   120.85873171   358.78973055
 C     12   5   2     1.503267197340   113.10574414   300.07150115
 C     13   7   3     1.499774047689   113.51219219    38.29585556
 C     17  12   5     1.329972912295   125.03757877   122.38455207
 C     18  13   7     1.326668419532   124.66243544   239.69874474
 H      6   5   2     1.080219628243   117.91228040   183.29852350
 H      8   7   3     1.082290095607   118.75056584   181.04123221
 H     10   4   3     1.081300516102   119.86026657   359.91848851
 H     12   5   2     1.095346142243   110.15893401    62.79666270
 H     12   5   2     1.092567626976   108.06525696   178.80731477
 H     13   7   3     1.095184855596   109.78593893   275.61010763
 H     13   7   3     1.094953764030   108.17668053   159.90564967
 H     14   7   3     1.083820986803   119.72937988   179.66956061
 H     15  10   4     1.082241709248   120.78993140   178.60841476
 H     16  14   7     1.082517550071   121.09320650   182.00954762
 H     17  12   5     1.086615391335   115.56457543   303.54206867
 H     18  13   7     1.085713656694   115.98056937    58.14343820
 H      1   2   3     0.971888889749    34.74705523   126.07796554
 H      2   1   3     0.970538615957   133.11002978   333.75062508
 H     19  17  12     1.082310747678   121.71183158   180.14578756
 H     19  17  12     1.085487643804   121.42405953     1.84666480
 H     20  18  13     1.082542811705   121.42586599   179.54762844
 H     20  18  13     1.085009948036   121.54924412   359.51371234
 H      2   1   3     2.730635216117    83.38007530   239.42133605
 H     39   2   1     2.410390093840    60.51867584   296.19845716
 O     40  39   2     2.066338630620    90.77297005   121.63240192
 C     40  39   2     1.087583709411    66.72182437   155.85237190
 C     39   2   1     1.086241730612   115.58842382   331.16835589
 C     41  40  39     1.337754762962   115.13429795   326.15702792
 O     44  41  40     1.193646172283   125.25914116   217.27842773
 O     44  41  40     1.358571943921   110.88333865    37.22110982
 H     43  39   2     1.374971770460   108.20279460   193.57047001
 H     42  40  39     1.087006255378   111.41293906   118.35542817
 H     16  14   7     4.329442357145    82.10268153   273.91281224
 H     49  16  14     1.794970070330    12.78598269    80.41114915
 C     49  16  14     1.087055277312    47.07141437    87.60501984
 H     51  49  16     2.388068112620    80.45064884   133.04780165
 C     52  51  49     1.380641188069    36.67227445   196.92926528
 H     53  52  51     1.085646798970   107.94992143   128.73911185
 O     51  49  16     1.437188652655   109.08284375   236.94782074
 O     53  52  51     1.402675006679   108.52226747   246.97942731
 C     55  51  49     1.343706485789   109.41564637   226.36268090
 O     57  55  51     1.189087267085   125.84296879   187.56896240

---------------------------
INTERNAL COORDINATES (A.U.)
---------------------------
 O      0   0   0     0.000000000000     0.00000000     0.00000000
 O      1   0   0    11.959367140196     0.00000000     0.00000000
 C      1   2   0     4.614188962384    62.92082754     0.00000000
 C      3   1   2     2.795994025868    94.93163826   359.39816785
 C      2   1   3     4.586748763731    49.66516520   332.02276855
 C      5   2   1     2.623122326015   146.76962022    20.45672202
 C      3   1   2     4.626938112067   117.12332422   179.39383731
 C      7   3   1     2.625277697736    28.63201845   182.85190046
 C      1   2   3     2.573961398008    91.50602520   358.84530029
 C      4   3   1     2.638911702771   121.79621124   313.44195186
 C      2   1   3     2.598421344262    25.75697658     1.06193851
 C      5   2   1     2.855717241802    92.70225185   204.84511517
 C      7   3   1     2.863379611549   149.65716206   181.12331428
 C      7   3   1     2.633366005295    89.12168977     3.36991705
 C     10   4   3     2.619588407197   120.71271753   180.64664837
 C     14   7   3     2.618874544196   120.85873171   358.78973055
 C     12   5   2     2.840763309080   113.10574414   300.07150115
 C     13   7   3     2.834162212894   113.51219219    38.29585556
 C     17  12   5     2.513284569771   125.03757877   122.38455207
 C     18  13   7     2.507039983437   124.66243544   239.69874474
 H      6   5   2     2.041319261866   117.91228040   183.29852350
 H      8   7   3     2.045231878153   118.75056584   181.04123221
 H     10   4   3     2.043361843901   119.86026657   359.91848851
 H     12   5   2     2.069904230687   110.15893401    62.79666270
 H     12   5   2     2.064653597772   108.06525696   178.80731477
 H     13   7   3     2.069599443094   109.78593893   275.61010763
 H     13   7   3     2.069162743323   108.17668053   159.90564967
 H     14   7   3     2.048124843254   119.72937988   179.66956061
 H     15  10   4     2.045140441186   120.78993140   178.60841476
 H     16  14   7     2.045661704797   121.09320650   182.00954762
 H     17  12   5     2.053405502527   115.56457543   303.54206867
 H     18  13   7     2.051701471010   115.98056937    58.14343820
 H      1   2   3     1.836603834226    34.74705523   126.07796554
 H      2   1   3     1.834052186554   133.11002978   333.75062508
 H     19  17  12     2.045270904910   121.71183158   180.14578756
 H     19  17  12     2.051274368545   121.42405953     1.84666480
 H     20  18  13     2.045709442368   121.42586599   179.54762844
 H     20  18  13     2.050371654368   121.54924412   359.51371234
 H      2   1   3     5.160152730101    83.38007530   239.42133605
 H     39   2   1     4.554977153274    60.51867584   296.19845716
 O     40  39   2     3.904814111813    90.77297005   121.63240192
 C     40  39   2     2.055235358500    66.72182437   155.85237190
 C     39   2   1     2.052699386094   115.58842382   331.16835589
 C     41  40  39     2.527990136347   115.13429795   326.15702792
 O     44  41  40     2.255664366418   125.25914116   217.27842773
 O     44  41  40     2.567328907240   110.88333865    37.22110982
 H     43  39   2     2.598320088043   108.20279460   193.57047001
 H     42  40  39     2.054144128525   111.41293906   118.35542817
 H     16  14   7     8.181460367603    82.10268153   273.91281224
 H     49  16  14     3.392001851509    12.78598269    80.41114915
 C     49  16  14     2.054236766553    47.07141437    87.60501984
 H     51  49  16     4.512794722002    80.45064884   133.04780165
 C     52  51  49     2.609033734661    36.67227445   196.92926528
 H     53  52  51     2.051575128221   107.94992143   128.73911185
 O     51  49  16     2.715892956298   109.08284375   236.94782074
 O     53  52  51     2.650671617519   108.52226747   246.97942731
 C     55  51  49     2.539237262516   109.41564637   226.36268090
 O     57  55  51     2.247049284123   125.84296879   187.56896240

---------------------
BASIS SET INFORMATION
---------------------
There are 3 groups of distinct atoms

 Group   1 Type O   : 11s6p2d1f contracted to 5s3p2d1f pattern {62111/411/11/1}
 Group   2 Type C   : 11s6p2d1f contracted to 5s3p2d1f pattern {62111/411/11/1}
 Group   3 Type H   : 5s1p contracted to 3s1p pattern {311/1}

Atom   0O    basis set group =>   1
Atom   1O    basis set group =>   1
Atom   2C    basis set group =>   2
Atom   3C    basis set group =>   2
Atom   4C    basis set group =>   2
Atom   5C    basis set group =>   2
Atom   6C    basis set group =>   2
Atom   7C    basis set group =>   2
Atom   8C    basis set group =>   2
Atom   9C    basis set group =>   2
Atom  10C    basis set group =>   2
Atom  11C    basis set group =>   2
Atom  12C    basis set group =>   2
Atom  13C    basis set group =>   2
Atom  14C    basis set group =>   2
Atom  15C    basis set group =>   2
Atom  16C    basis set group =>   2
Atom  17C    basis set group =>   2
Atom  18C    basis set group =>   2
Atom  19C    basis set group =>   2
Atom  20H    basis set group =>   3
Atom  21H    basis set group =>   3
Atom  22H    basis set group =>   3
Atom  23H    basis set group =>   3
Atom  24H    basis set group =>   3
Atom  25H    basis set group =>   3
Atom  26H    basis set group =>   3
Atom  27H    basis set group =>   3
Atom  28H    basis set group =>   3
Atom  29H    basis set group =>   3
Atom  30H    basis set group =>   3
Atom  31H    basis set group =>   3
Atom  32H    basis set group =>   3
Atom  33H    basis set group =>   3
Atom  34H    basis set group =>   3
Atom  35H    basis set group =>   3
Atom  36H    basis set group =>   3
Atom  37H    basis set group =>   3
Atom  38H    basis set group =>   3
Atom  39H    basis set group =>   3
Atom  40O    basis set group =>   1
Atom  41C    basis set group =>   2
Atom  42C    basis set group =>   2
Atom  43C    basis set group =>   2
Atom  44O    basis set group =>   1
Atom  45O    basis set group =>   1
Atom  46H    basis set group =>   3
Atom  47H    basis set group =>   3
Atom  48H    basis set group =>   3
Atom  49H    basis set group =>   3
Atom  50C    basis set group =>   2
Atom  51H    basis set group =>   3
Atom  52C    basis set group =>   2
Atom  53H    basis set group =>   3
Atom  54O    basis set group =>   1
Atom  55O    basis set group =>   1
Atom  56C    basis set group =>   2
Atom  57O    basis set group =>   1
---------------------------------
AUXILIARY/J BASIS SET INFORMATION
---------------------------------
There are 3 groups of distinct atoms

 Group   1 Type O   : 12s5p4d2f1g contracted to 6s4p3d1f1g pattern {711111/2111/211/2/1}
 Group   2 Type C   : 12s5p4d2f1g contracted to 6s4p3d1f1g pattern {711111/2111/211/2/1}
 Group   3 Type H   : 5s2p1d contracted to 3s1p1d pattern {311/2/1}

Atom   0O    basis set group =>   1
Atom   1O    basis set group =>   1
Atom   2C    basis set group =>   2
Atom   3C    basis set group =>   2
Atom   4C    basis set group =>   2
Atom   5C    basis set group =>   2
Atom   6C    basis set group =>   2
Atom   7C    basis set group =>   2
Atom   8C    basis set group =>   2
Atom   9C    basis set group =>   2
Atom  10C    basis set group =>   2
Atom  11C    basis set group =>   2
Atom  12C    basis set group =>   2
Atom  13C    basis set group =>   2
Atom  14C    basis set group =>   2
Atom  15C    basis set group =>   2
Atom  16C    basis set group =>   2
Atom  17C    basis set group =>   2
Atom  18C    basis set group =>   2
Atom  19C    basis set group =>   2
Atom  20H    basis set group =>   3
Atom  21H    basis set group =>   3
Atom  22H    basis set group =>   3
Atom  23H    basis set group =>   3
Atom  24H    basis set group =>   3
Atom  25H    basis set group =>   3
Atom  26H    basis set group =>   3
Atom  27H    basis set group =>   3
Atom  28H    basis set group =>   3
Atom  29H    basis set group =>   3
Atom  30H    basis set group =>   3
Atom  31H    basis set group =>   3
Atom  32H    basis set group =>   3
Atom  33H    basis set group =>   3
Atom  34H    basis set group =>   3
Atom  35H    basis set group =>   3
Atom  36H    basis set group =>   3
Atom  37H    basis set group =>   3
Atom  38H    basis set group =>   3
Atom  39H    basis set group =>   3
Atom  40O    basis set group =>   1
Atom  41C    basis set group =>   2
Atom  42C    basis set group =>   2
Atom  43C    basis set group =>   2
Atom  44O    basis set group =>   1
Atom  45O    basis set group =>   1
Atom  46H    basis set group =>   3
Atom  47H    basis set group =>   3
Atom  48H    basis set group =>   3
Atom  49H    basis set group =>   3
Atom  50C    basis set group =>   2
Atom  51H    basis set group =>   3
Atom  52C    basis set group =>   2
Atom  53H    basis set group =>   3
Atom  54O    basis set group =>   1
Atom  55O    basis set group =>   1
Atom  56C    basis set group =>   2
Atom  57O    basis set group =>   1
--------------------------------------------------------------------------
By default, for Open MPI 4.0 and later, infiniband ports on a device
are not used by default.  The intent is to use UCX for these devices.
You can override this policy by setting the btl_openib_allow_ib MCA parameter
to true.

  Local host:              psid03
  Local adapter:           mlx5_0
  Local port:              1

--------------------------------------------------------------------------
--------------------------------------------------------------------------
WARNING: There was an error initializing an OpenFabrics device.

  Local host:   psid03
  Local device: mlx5_0
--------------------------------------------------------------------------


           ************************************************************
           *        Program running with 35 parallel MPI-processes    *
           *              working on a common directory               *
           ************************************************************
------------------------------------------------------------------------------
                             ORCA STARTUP CALCULATIONS
                           -- RI-GTO INTEGRALS CHOSEN --
------------------------------------------------------------------------------
------------------------------------------------------------------------------
                   ___                                                        
                  /   \      - P O W E R E D   B Y -                         
                 /     \                                                     
                 |  |  |   _    _      __       _____    __    __             
                 |  |  |  | |  | |    /  \     |  _  \  |  |  /  |          
                  \  \/   | |  | |   /    \    | | | |  |  | /  /          
                 / \  \   | |__| |  /  /\  \   | |_| |  |  |/  /          
                |  |  |   |  __  | /  /__\  \  |    /   |      \           
                |  |  |   | |  | | |   __   |  |    \   |  |\   \          
                \     /   | |  | | |  |  |  |  | |\  \  |  | \   \       
                 \___/    |_|  |_| |__|  |__|  |_| \__\ |__|  \__/        
                                                                              
                      - O R C A' S   B I G   F R I E N D -                    
                                      &                                       
                       - I N T E G R A L  F E E D E R -                       
                                                                              
 v1 FN, 2020, v2 2021, v3 2022-2024                                           
------------------------------------------------------------------------------


----------------------
SHARK INTEGRAL PACKAGE
----------------------

Number of atoms                             ...     58
Number of basis functions                   ...   1148
Number of shells                            ...    456
Maximum angular momentum                    ...      3
Integral batch strategy                     ... SHARK/LIBINT Hybrid
RI-J (if used) integral strategy            ... SPLIT-RIJ (Revised 2003 algorithm where possible)
Printlevel                                  ...      1
Contraction scheme used                     ... SEGMENTED contraction
Prescreening option                         ... SCHWARTZ
   Thresh                                   ... 2.500e-11
   Tcut                                     ... 2.500e-12
   Tpresel                                  ... 2.500e-12 
Coulomb Range Separation                    ... NOT USED
Exchange Range Separation                   ... NOT USED
Multipole approximations                    ... NOT USED
Finite Nucleus Model                        ... NOT USED
CABS basis                                  ... NOT available
Auxiliary Coulomb fitting basis             ... AVAILABLE
   # of basis functions in Aux-J            ...   1854
   # of shells in Aux-J                     ...    610
   Maximum angular momentum in Aux-J        ...      4
Auxiliary J/K fitting basis                 ... NOT available
Auxiliary Correlation fitting basis         ... NOT available
Auxiliary 'external' fitting basis          ... NOT available

Checking pre-screening integrals            ... done (  0.0 sec) Dimension = 456
Check shell pair data                       ... done (  0.0 sec)
Shell pair information
Shell pair cut-off parameter TPreSel        ...   2.5e-12
Total number of shell pairs                 ...    104196
Shell pairs after pre-screening             ...     66967
Total number of primitive shell pairs       ...    317988
Primitive shell pairs kept                  ...    129770
          la=0 lb=0:  17700 shell pairs
          la=1 lb=0:  19658 shell pairs
          la=1 lb=1:   5492 shell pairs
          la=2 lb=0:   9282 shell pairs
          la=2 lb=1:   5318 shell pairs
          la=2 lb=2:   1287 shell pairs
          la=3 lb=0:   4271 shell pairs
          la=3 lb=1:   2522 shell pairs
          la=3 lb=2:   1150 shell pairs
          la=3 lb=3:    287 shell pairs

Calculating one electron integrals          ... done (  0.1 sec)
Calculating RI/J V-Matrix + Cholesky decomp.... done (  0.2 sec)
Calculating Nuclear repulsion               ... done (  0.0 sec) ENN=   3473.647850776581 Eh

Diagonalization of the overlap matrix:
Smallest eigenvalue                        ... 4.227e-06
Time for diagonalization                   ...    0.311 sec
Threshold for overlap eigenvalues          ... 1.000e-07
Number of eigenvalues below threshold      ... 0
Time for construction of square roots      ...    0.153 sec
Total time needed                          ...    0.503 sec

-------------------
DFT GRID GENERATION
-------------------

General Integration Accuracy     IntAcc      ... 4.388
Radial Grid Type                 RadialGrid  ... OptM3 with GC (2021)
Angular Grid (max. ang.)         AngularGrid ... 4 (Lebedev-302)
Angular grid pruning method      GridPruning ... 4 (adaptive)
Weight generation scheme         WeightScheme... mBecke (2022)
Basis function cutoff            BFCut       ... 1.0000e-11
Integration weight cutoff        WCut        ... 1.0000e-14
Partially contracted basis set               ... off
Rotationally invariant grid construction     ... off
Angular grids for H and He will be reduced by one unit

Total number of grid points                  ...   272845
Total number of batches                      ...     4295
Average number of points per batch           ...       63
Average number of grid points per atom       ...     4704

--------------------
COSX GRID GENERATION
--------------------

GRIDX 1
-------
General Integration Accuracy     IntAcc      ... 3.816
Radial Grid Type                 RadialGrid  ... OptM3 with GC (2021)
Angular Grid (max. ang.)         AngularGrid ... 1 (Lebedev-50)
Angular grid pruning method      GridPruning ... 4 (adaptive)
Weight generation scheme         WeightScheme... mBecke (2022)
Basis function cutoff            BFCut       ... 1.0000e-11
Integration weight cutoff        WCut        ... 1.0000e-14
Partially contracted basis set               ... on
Rotationally invariant grid construction     ... off
Angular grids for H and He will be reduced by one unit

Total number of grid points                  ...    34523
Total number of batches                      ...      308
Average number of points per batch           ...      112
Average number of grid points per atom       ...      595
UseSFitting                                  ... on

GRIDX 2
-------
General Integration Accuracy     IntAcc      ... 4.020
Radial Grid Type                 RadialGrid  ... OptM3 with GC (2021)
Angular Grid (max. ang.)         AngularGrid ... 2 (Lebedev-110)
Angular grid pruning method      GridPruning ... 4 (adaptive)
Weight generation scheme         WeightScheme... mBecke (2022)
Basis function cutoff            BFCut       ... 1.0000e-11
Integration weight cutoff        WCut        ... 1.0000e-14
Partially contracted basis set               ... on
Rotationally invariant grid construction     ... off
Angular grids for H and He will be reduced by one unit

Total number of grid points                  ...    74369
Total number of batches                      ...      614
Average number of points per batch           ...      121
Average number of grid points per atom       ...     1282
UseSFitting                                  ... on
[psid03:230597] 34 more processes have sent help message help-mpi-btl-openib.txt / ib port not selected
[psid03:230597] Set MCA parameter "orte_base_help_aggregate" to 0 to see all help / error messages
[psid03:230597] 34 more processes have sent help message help-mpi-btl-openib.txt / error in device init

GRIDX 3
-------
General Integration Accuracy     IntAcc      ... 4.338
Radial Grid Type                 RadialGrid  ... OptM3 with GC (2021)
Angular Grid (max. ang.)         AngularGrid ... 3 (Lebedev-194)
Angular grid pruning method      GridPruning ... 4 (adaptive)
Weight generation scheme         WeightScheme... mBecke (2022)
Basis function cutoff            BFCut       ... 1.0000e-11
Integration weight cutoff        WCut        ... 1.0000e-14
Partially contracted basis set               ... on
Rotationally invariant grid construction     ... off
Angular grids for H and He will be reduced by one unit

Total number of grid points                  ...   162060
Total number of batches                      ...     1298
Average number of points per batch           ...      124
Average number of grid points per atom       ...     2794
UseSFitting                                  ... on
Initializing property integral containers    ... done (  0.1 sec)

SHARK setup successfully completed in   6.5 seconds

Maximum memory used throughout the entire STARTUP-calculation: 134.0 MB
--------------------------------------------------------------------------
[...]
 C     10   4   3     2.618941077338   120.76381201   182.23314546
 C     14   7   3     2.618617698785   120.84197506   358.78654349
 C     12   5   2     2.840426963900   112.94696305   299.31880472
 C     13   7   3     2.833977311451   113.61093272    37.37568005
 C     17  12   5     2.513277008550   125.07289699   122.06766957
 C     18  13   7     2.507130744179   124.65224842   238.16205623
 H      6   5   2     2.040990898978   117.88964780   182.38469255
 H      8   7   3     2.045029106585   118.72747856   181.04483466
 H     10   4   3     2.043161134773   119.82155113     1.37822677
 H     12   5   2     2.070072454240   110.41442181    61.97042366
 H     12   5   2     2.064482179210   107.96169891   178.18136849
 H     13   7   3     2.069885805900   109.86700079   274.53032333
 H     13   7   3     2.069680632902   108.09245222   158.88300044
 H     14   7   3     2.048356537739   119.72458985   179.75847733
 H     15  10   4     2.045005238266   120.81342404   178.62094198
 H     16  14   7     2.045393176923   121.06303512   181.99125264
 H     17  12   5     2.053302191656   115.51645264   303.37547070
 H     18  13   7     2.051517340691   115.93542988    56.61249904
 H      1   2   3     1.839291559334    38.08205956   123.86374311
 H      2   1   3     1.832876338570   132.55972202   335.76992124
 H     19  17  12     2.045314736057   121.72330880   180.30779579
 H     19  17  12     2.051347626036   121.41180942     1.90236898
 H     20  18  13     2.045789679787   121.39435820   179.60574811
 H     20  18  13     2.050540920460   121.57476973   359.70535577
 H     24  12   5     4.705335111743   127.99530860   343.81046081
 H     39  24  12     4.460092732688   128.65872705   345.85069300
 O     40  39  24     3.894270412196    89.17156530    99.05617011
 C     40  39  24     2.054989663833    67.60658859   135.43993834
 C     39  24  12     2.053788191420   136.12777048    83.45360500
 C     41  40  39     2.533397784287   119.01263873   335.58425990
 O     44  41  40     2.265030242250   124.25633892   216.00813288
 O     44  41  40     2.534534862001   111.65643625    36.91146744
 H     43  39  24     2.057976545891   110.38588948   106.78046767
 H     42  40  39     2.056186945285   110.31363605   125.33305674
 H     14   7   3     8.201742523605    90.69705180   278.63015994
 H     49  14   7     3.372598895089    21.76122394    80.99196358
 C     49  14   7     2.055575894615    51.43764467    47.29577383
 H     51  49  14     4.151535864480    87.37214655   156.62199161
 C     52  51  49     2.061975735857    39.95954059   196.71820417
 H     53  52  51     2.052368488622   110.05147182   128.35572020
 O     51  49  14     2.721473797427   108.40953793   262.30454084
 O     53  52  51     2.716993783645   108.20778567   246.79881919
 C     56  53  52     2.547845039096   110.10474819   106.18479473
 O     57  56  53     2.256869752298   124.22761541   183.29552907

--------------------------------------------------------------------------
By default, for Open MPI 4.0 and later, infiniband ports on a device
are not used by default.  The intent is to use UCX for these devices.
You can override this policy by setting the btl_openib_allow_ib MCA parameter
to true.

  Local host:              psid03
  Local adapter:           mlx5_0
  Local port:              1

--------------------------------------------------------------------------
--------------------------------------------------------------------------
WARNING: There was an error initializing an OpenFabrics device.

  Local host:   psid03
  Local device: mlx5_0
--------------------------------------------------------------------------


           ************************************************************
           *        Program running with 35 parallel MPI-processes    *
           *              working on a common directory               *
           ************************************************************
------------------------------------------------------------------------------
                   ___                                                        
                  /   \      - P O W E R E D   B Y -                         
                 /     \                                                     
                 |  |  |   _    _      __       _____    __    __             
                 |  |  |  | |  | |    /  \     |  _  \  |  |  /  |          
                  \  \/   | |  | |   /    \    | | | |  |  | /  /          
                 / \  \   | |__| |  /  /\  \   | |_| |  |  |/  /          
                |  |  |   |  __  | /  /__\  \  |    /   |      \           
                |  |  |   | |  | | |   __   |  |    \   |  |\   \          
                \     /   | |  | | |  |  |  |  | |\  \  |  | \   \       
                 \___/    |_|  |_| |__|  |__|  |_| \__\ |__|  \__/        
                                                                              
                      - O R C A' S   B I G   F R I E N D -                    
                                      &                                       
                       - I N T E G R A L  F E E D E R -                       
                                                                              
 v1 FN, 2020, v2 2021, v3 2022-2024                                           
------------------------------------------------------------------------------


----------------------
SHARK INTEGRAL PACKAGE
----------------------

Number of atoms                             ...     58
Number of basis functions                   ...   1148
Number of shells                            ...    456
Maximum angular momentum                    ...      3
Integral batch strategy                     ... SHARK/LIBINT Hybrid
RI-J (if used) integral strategy            ... SPLIT-RIJ (Revised 2003 algorithm where possible)
Printlevel                                  ...      1
Contraction scheme used                     ... SEGMENTED contraction
Prescreening option                         ... SCHWARTZ
   Thresh                                   ... 2.500e-11
   Tcut                                     ... 2.500e-12
   Tpresel                                  ... 2.500e-12 
Coulomb Range Separation                    ... NOT USED
Exchange Range Separation                   ... NOT USED
Multipole approximations                    ... NOT USED
Finite Nucleus Model                        ... NOT USED
CABS basis                                  ... NOT available
Auxiliary Coulomb fitting basis             ... AVAILABLE
   # of basis functions in Aux-J            ...   1854
   # of shells in Aux-J                     ...    610
   Maximum angular momentum in Aux-J        ...      4
Auxiliary J/K fitting basis                 ... NOT available
Auxiliary Correlation fitting basis         ... NOT available
Auxiliary 'external' fitting basis          ... NOT available

Checking pre-screening integrals            ... done (  0.0 sec) Dimension = 456
Check shell pair data                       ... done (  0.0 sec)
Shell pair information
Shell pair cut-off parameter TPreSel        ...   2.5e-12
Total number of shell pairs                 ...    104196
Shell pairs after pre-screening             ...     67262
Total number of primitive shell pairs       ...    317988
Primitive shell pairs kept                  ...    130170
          la=0 lb=0:  17785 shell pairs
          la=1 lb=0:  19748 shell pairs
          la=1 lb=1:   5522 shell pairs
          la=2 lb=0:   9311 shell pairs
          la=2 lb=1:   5344 shell pairs
          la=2 lb=2:   1287 shell pairs
          la=3 lb=0:   4294 shell pairs
          la=3 lb=1:   2533 shell pairs
          la=3 lb=2:   1150 shell pairs
          la=3 lb=3:    288 shell pairs

Calculating one electron integrals          ... done (  0.1 sec)
Calculating RI/J V-Matrix + Cholesky decomp.... done (  0.2 sec)
Calculating Nuclear repulsion               ... done (  0.0 sec) ENN=   3478.032862897627 Eh

Diagonalization of the overlap matrix:
Smallest eigenvalue                        ... 4.146e-06
Time for diagonalization                   ...    0.311 sec
Threshold for overlap eigenvalues          ... 1.000e-07
Number of eigenvalues below threshold      ... 0
Time for construction of square roots      ...    0.153 sec
Total time needed                          ...    0.509 sec

-------------------
DFT GRID GENERATION
-------------------

General Integration Accuracy     IntAcc      ... 4.388
Radial Grid Type                 RadialGrid  ... OptM3 with GC (2021)
Angular Grid (max. ang.)         AngularGrid ... 4 (Lebedev-302)
Angular grid pruning method      GridPruning ... 4 (adaptive)
Weight generation scheme         WeightScheme... mBecke (2022)
Basis function cutoff            BFCut       ... 1.0000e-11
Integration weight cutoff        WCut        ... 1.0000e-14
Partially contracted basis set               ... off
Rotationally invariant grid construction     ... off
Angular grids for H and He will be reduced by one unit

Total number of grid points                  ...   272714
Total number of batches                      ...     4291
Average number of points per batch           ...       63
Average number of grid points per atom       ...     4702

--------------------
COSX GRID GENERATION
--------------------

GRIDX 1
-------
General Integration Accuracy     IntAcc      ... 3.816
Radial Grid Type                 RadialGrid  ... OptM3 with GC (2021)
Angular Grid (max. ang.)         AngularGrid ... 1 (Lebedev-50)
Angular grid pruning method      GridPruning ... 4 (adaptive)
Weight generation scheme         WeightScheme... mBecke (2022)
Basis function cutoff            BFCut       ... 1.0000e-11
Integration weight cutoff        WCut        ... 1.0000e-14
Partially contracted basis set               ... on
Rotationally invariant grid construction     ... off
Angular grids for H and He will be reduced by one unit

Total number of grid points                  ...    34519
Total number of batches                      ...      305
Average number of points per batch           ...      113
Average number of grid points per atom       ...      595
UseSFitting                                  ... on

GRIDX 2
-------
General Integration Accuracy     IntAcc      ... 4.020
Radial Grid Type                 RadialGrid  ... OptM3 with GC (2021)
Angular Grid (max. ang.)         AngularGrid ... 2 (Lebedev-110)
Angular grid pruning method      GridPruning ... 4 (adaptive)
Weight generation scheme         WeightScheme... mBecke (2022)
Basis function cutoff            BFCut       ... 1.0000e-11
Integration weight cutoff        WCut        ... 1.0000e-14
Partially contracted basis set               ... on
Rotationally invariant grid construction     ... off
Angular grids for H and He will be reduced by one unit

Total number of grid points                  ...    74308
Total number of batches                      ...      614
Average number of points per batch           ...      121
Average number of grid points per atom       ...     1281
UseSFitting                                  ... on
[psid03:242334] 34 more processes have sent help message help-mpi-btl-openib.txt / ib port not selected
[psid03:242334] Set MCA parameter "orte_base_help_aggregate" to 0 to see all help / error messages
[psid03:242334] 34 more processes have sent help message help-mpi-btl-openib.txt / error in device init

GRIDX 3
-------
General Integration Accuracy     IntAcc      ... 4.338
Radial Grid Type                 RadialGrid  ... OptM3 with GC (2021)
Angular Grid (max. ang.)         AngularGrid ... 3 (Lebedev-194)
Angular grid pruning method      GridPruning ... 4 (adaptive)
Weight generation scheme         WeightScheme... mBecke (2022)
Basis function cutoff            BFCut       ... 1.0000e-11
Integration weight cutoff        WCut        ... 1.0000e-14
Partially contracted basis set               ... on
Rotationally invariant grid construction     ... off
Angular grids for H and He will be reduced by one unit

Total number of grid points                  ...   161954
Total number of batches                      ...     1297
Average number of points per batch           ...      124
Average number of grid points per atom       ...     2792
UseSFitting                                  ... on
Initializing property integral containers    ... done (  0.0 sec)

SHARK setup successfully completed in   6.4 seconds

Maximum memory used throughout the entire STARTUP-calculation: 144.4 MB
--------------------------------------------------------------------------
By default, for Open MPI 4.0 and later, infiniband ports on a device
are not used by default.  The intent is to use UCX for these devices.
You can override this policy by setting the btl_openib_allow_ib MCA parameter
to true.

  Local host:              psid03
  Local adapter:           mlx5_0
  Local port:              1

--------------------------------------------------------------------------
--------------------------------------------------------------------------
WARNING: There was an error initializing an OpenFabrics device.

  Local host:   psid03
  Local device: mlx5_0
--------------------------------------------------------------------------


           ************************************************************
           *        Program running with 35 parallel MPI-processes    *
           *              working on a common directory               *
           ************************************************************
Occupation numbers will be reassigned to an Aufbau configuration
             **** ENERGY FILE WAS UPDATED (honokiol3_EC2.en.tmp) ****
Finished Guess after   3.2 sec
Maximum memory used throughout the entire GUESS-calculation: 141.8 MB
[psid03:242454] 34 more processes have sent help message help-mpi-btl-openib.txt / ib port not selected
[psid03:242454] Set MCA parameter "orte_base_help_aggregate" to 0 to see all help / error messages
[psid03:242454] 34 more processes have sent help message help-mpi-btl-openib.txt / error in device init
--------------------------------------------------------------------------
By default, for Open MPI 4.0 and later, infiniband ports on a device
are not used by default.  The intent is to use UCX for these devices.
You can override this policy by setting the btl_openib_allow_ib MCA parameter
to true.

  Local host:              psid03
  Local adapter:           mlx5_0
  Local port:              1

--------------------------------------------------------------------------
--------------------------------------------------------------------------
WARNING: There was an error initializing an OpenFabrics device.

  Local host:   psid03
  Local device: mlx5_0
--------------------------------------------------------------------------


           ************************************************************
           *        Program running with 35 parallel MPI-processes    *
           *              working on a common directory               *
           ************************************************************
----------------------------------------D-I-I-S--------------------------------------------
Iteration    Energy (Eh)           Delta-E    RMSDP     MaxDP     DIISErr   Damp  Time(sec)
-------------------------------------------------------------------------------------------
               ***  Starting incremental Fock matrix formation  ***
[psid03:242570] 34 more processes have sent help message help-mpi-btl-openib.txt / ib port not selected
[psid03:242570] Set MCA parameter "orte_base_help_aggregate" to 0 to see all help / error messages
[psid03:242570] 34 more processes have sent help message help-mpi-btl-openib.txt / error in device init
                              *** Initializing SOSCF ***
---------------------------------------S-O-S-C-F--------------------------------------
Iteration    Energy (Eh)           Delta-E    RMSDP     MaxDP     MaxGrad    Time(sec)
--------------------------------------------------------------------------------------
    1    -1531.7243109976889173     0.00e+00  7.94e-05  6.89e-03  1.77e-04     9.6
               *** Restarting incremental Fock matrix formation ***
    2    -1531.7243800464830201    -6.90e-05  1.68e-05  1.28e-03  2.19e-04     8.5
    3    -1531.7243870074162260    -6.96e-06  1.08e-05  2.49e-03  5.30e-05     5.8
    4    -1531.7243865410100625     4.66e-07  7.39e-06  1.44e-03  1.08e-04     5.3
    5    -1531.7243872941762675    -7.53e-07  7.02e-06  9.98e-04  1.23e-05     5.1
    6    -1531.7243873074885414    -1.33e-08  9.45e-07  1.30e-04  1.89e-05     4.6
    7    -1531.7243873267070740    -1.92e-08  3.01e-06  4.09e-04  1.25e-06     4.4
                  *** Gradient check signals convergence ***

               *****************************************************
               *                     SUCCESS                       *
               *           SCF CONVERGED AFTER   7 CYCLES          *
               *****************************************************

Recomputing exchange energy using gridx3       ... done (   11.089 sec)
Old exchange energy                            :    -39.947460926 Eh
New exchange energy                            :    -39.947478700 Eh
Exchange energy change after final integration :     -0.000017774 Eh
Total energy after final integration           :  -1531.724405101 Eh
             **** ENERGY FILE WAS UPDATED (honokiol3_EC2.en.tmp) ****

----------------
TOTAL SCF ENERGY
----------------

Total Energy       :      -1531.72440510080924 Eh          -41680.34005 eV

Components:
Nuclear Repulsion  :       3478.03286289762673 Eh           94642.08571 eV
Electronic Energy  :      -5009.75725022433380 Eh         -136322.42528 eV
One Electron Energy:      -9010.63329802231965 Eh         -245191.79735 eV
Two Electron Energy:       4000.87604779798585 Eh          108869.37207 eV

Virial components:
Potential Energy   :      -3057.15616237765062 Eh          -83189.44845 eV
Kinetic Energy     :       1525.43175727684138 Eh           41509.10840 eV
Virial Ratio       :          2.00412515852902

DFT components:
N(Alpha)           :      116.999825789295 electrons
N(Beta)            :      116.999825789295 electrons
N(Total)           :      233.999651578589 electrons
E(X)               :     -158.836185531562 Eh       
E(C)               :       -9.469997560170 Eh       
E(XC)              :     -168.306183091731 Eh       

---------------
SCF CONVERGENCE
---------------

  Last Energy change         ...    1.9219e-08  Tolerance :   1.0000e-08
  Last MAX-Density change    ...    4.0869e-04  Tolerance :   1.0000e-07
  Last RMS-Density change    ...    3.0116e-06  Tolerance :   5.0000e-09
  Last DIIS Error            ...    2.5137e-03  Tolerance :   5.0000e-07
  Last Orbital Gradient      ...    1.2512e-06  Tolerance :   1.0000e-05
  Last Orbital Rotation      ...    3.9744e-06  Tolerance :   1.0000e-05


Total SCF time: 0 days 0 hours 0 min 57 sec 
Finished LeanSCF after  57.9 sec

Maximum memory used throughout the entire LEANSCF-calculation: 222.4 MB


-------------------------------------------------------------------------------
                          DFT DISPERSION CORRECTION                            
                                                                               
                              DFTD3 V3.1  Rev 1                                
                          USING Becke-Johnson damping                          
-------------------------------------------------------------------------------
-------------------------   ----------------
Dispersion correction           -0.134302216
-------------------------   ----------------


-------------------------   --------------------
FINAL SINGLE POINT ENERGY     -1531.858707316353
-------------------------   --------------------

