
                                 *****************
                                 * O   R   C   A *
                                 *****************

                                            #,                                       
                                            ###                                      
                                            ####                                     
                                            #####                                    
                                            ######                                   
                                           ########,                                 
                                     ,,################,,,,,                         
                               ,,#################################,,                 
                          ,,##########################################,,             
                       ,#########################################, ''#####,          
                    ,#############################################,,   '####,        
                  ,##################################################,,,,####,       
                ,###########''''           ''''###############################       
              ,#####''   ,,,,##########,,,,          '''####'''          '####       
            ,##' ,,,,###########################,,,                        '##       
           ' ,,###''''                  '''############,,,                           
         ,,##''                                '''############,,,,        ,,,,,,###''
      ,#''                                            '''#######################'''  
     '                                                          ''''####''''         
             ,#######,   #######,   ,#######,      ##                                
            ,#'     '#,  ##    ##  ,#'     '#,    #''#        ,####,   ,####,        
            ##       ##  ##   ,#'  ##            #'  '#       #'       #'  '#        
            ##       ##  #######   ##           ,######,      #####,   #    #        
            '#,     ,#'  ##    ##  '#,     ,#' ,#      #,     #,   #   #,  ,#        
             '#######'   ##     ##  '#######'  #'      '#     '####' # '####'        



                #########################################################
                #                        -***-                          #
                #          Department of theory and spectroscopy        #
                #                                                       #
                #                      Frank Neese                      #
                #                                                       #
                #     Directorship, Architecture, Infrastructure        #
                #                    SHARK, DRIVERS                     #
                #        Core code/Algorithms in most modules           #
                #                                                       #
                #        Max Planck Institute fuer Kohlenforschung      #
                #                Kaiser Wilhelm Platz 1                 #
                #                 D-45470 Muelheim/Ruhr                 #
                #                      Germany                          #
                #                                                       #
                #                  All rights reserved                  #
                #                        -***-                          #
                #########################################################


                         Program Version 6.0.1  -  RELEASE   -


 With contributions from (in alphabetic order):
[Max-Planck-Institut fuer Kohlenforschung]                               
  Daniel Aravena         : Magnetic Suceptibility                        
  Michael Atanasov       : Ab Initio Ligand Field Theory (pilot matlab implementation)
  Alexander A. Auer      : GIAO ZORA, VPT2 properties, NMR spectrum      
  Ute Becker             : All parallelization in ORCA, NUMFREQ, NUMCALC 
  Giovanni Bistoni       : ED, misc. LED, open-shell LED, HFLD           
  Martin Brehm           : Molecular dynamics                            
  Dmytro Bykov           : pre 5.0 version of the SCF Hessian            
  Marcos Casanova-Páez   : Triplet and SCS-CIS(D). UHF-(DLPNO)-IP/EA/STEOM-CCSD. UHF-CVS-IP/STEOM-CCSD   
  Vijay G. Chilkuri      : MRCI spin determinant printing, contributions to CSF-ICE 
  Pauline Colinet        : FMM embedding                                 
  Dipayan Datta          : RHF DLPNO-CCSD density                        
  Achintya Kumar Dutta   : EOM-CC, STEOM-CC                              
  Nicolas Foglia         : Exact transition moments, OPA infrastructure, MCD improvements    
  Dmitry Ganyushin       : Spin-Orbit,Spin-Spin,Magnetic field MRCI      
  Miquel Garcia-Rates    : C-PCM and meta-GGA Hessian, CCSD/C-PCM, Gaussian charge scheme 
  Tiago L. C. Gouveia    : GS-ROHF, GS-ROCIS                             
  Yang Guo               : DLPNO-NEVPT2, F12-NEVPT2, CIM, IAO-localization        
  Andreas Hansen         : Spin unrestricted coupled pair/coupled cluster methods 
  Ingolf Harden          : AUTO-CI MPn and infrastructure                
  Benjamin Helmich-Paris : MC-RPA, TRAH-(SCF,CASSCF), AVAS, COSX integrals, SCF dyn. polar. 
  Lee Huntington         : MR-EOM, pCC                                   
  Robert Izsak           : Overlap fitted RIJCOSX, COSX-SCS-MP3, EOM     
  Riya Kayal             : Wick's Theorem for AUTO-CI, AUTO-CI UHF-CCSDT 
  Emily Kempfer          : AUTO-CI, RHF CISDT and CCSDT                  
  Christian Kollmar      : KDIIS, OOCD, Brueckner-CCSD(T), CCSD density, CASPT2, CASPT2-K, improved NEVPT2 
  Axel Koslowski         : Symmetry handling                             
  Simone Kossmann        : meta-GGA functionals, TD-DFT gradient, OOMP2, (MP2 Hessian; deprecated post 5.0) 
  Lucas Lang             : DCDCAS                                        
  Marvin Lechner         : AUTO-CI (C++ implementation), FIC-MRCC        
  Spencer Leger          : CASSCF response                               
  Dagmar Lenk            : GEPOL surface, SMD, ORCA-2-JSON               
  Dimitrios Liakos       : Extrapolation schemes; Compound Job, initial MDCI parallelization 
  Dimitrios Manganas     : Further ROCIS development; embedding schemes. LFT, Crystal Embedding 
  Dimitrios Pantazis     : SARC Basis sets                               
  Anastasios Papadopoulos: AUTO-CI, single reference methods and gradients 
  Taras Petrenko         : pre 6.0 DFT Hessian and TD-DFT gradient, (ASA, deprecated), ECA, 1-Electron XAS/XES, NRVS 
  Peter Pinski           : DLPNO-MP2, DLPNO-MP2 Gradient                 
  Christoph Reimann      : Effective Core Potentials                     
  Marius Retegan         : Local ZFS, SOC                                
  Christoph Riplinger    : Optimizer, TS searches, QM/MM, DLPNO-CCSD(T), (RO)-DLPNO pert. Triples 
  Michael Roemelt        : Original ROCIS implementation                 
  Masaaki Saitow         : Open-shell DLPNO-CCSD energy and density      
  Barbara Sandhoefer     : DKH picture change effects                    
  Kantharuban Sivalingam : CASSCF convergence/infrastructure, NEVPT2 and variants, FIC-MRCI 
  Bernardo de Souza      : ESD, SOC TD-DFT                               
  Georgi L. Stoychev     : AutoAux, RI-MP2 NMR, DLPNO-MP2 response, X2C  
  Van Anh Tran           : RI-MP2 g-tensors                              
  Willem Van den Heuvel  : Paramagnetic NMR                              
  Zikuan Wang            : NOTCH, Electric field optimization            
  Frank Wennmohs         : Technical directorship and infrastructure     
  Hang Xu                : AUTO-CI-Response properties                   
                                                                         
[FACCTs GmbH]                                                            
  Markus Bursch, Miquel Garcia-Rates, Christoph Riplinger, Bernardo de Souza, Georgi L. Stoychev 
                                                                 
  APM, Basis sets (HGBS, AHGBS, def-TZVP (Ac-Lr), def2-XVPD (La-Lu)), CI-OPT, improved COSX, DLPNO-Multilevel,           
  DOCKER, DRACO, updates on ESD, GOAT, IRC, LR-CPCM, MBIS, meta-GGA TD-DFT gradient, ML-optimized integration grids, 
  MM, NACMEs, nearIR, NEB, NEB-TS, NL-DFT gradient (VV10), 2- and 3-layer-ONIOM, interface openCOSMO-RS, QMMM,   
  Crystal-QMMM, SF, symmetry and pop. for TD-DFT, r2SCAN hybrids, SOLVATOR                                   
                                                                         
[Other institutions]                                                     
  V. Asgeirsson          : NEB                                           
  Christoph Bannwarth    : sTDA-DFT, sTD-DFT, PBEh-3c, B97-3c, D3        
  Sebastian Ehlert       : rSCAN, r2SCAN, r2SCAN-3c, D4, dhf basis sets  
  Marvin Friede          : D4 for Fr, Ra, Ac-Lr                          
  Lars Goerigk           : TD-DFT with DH, B97 family of functionals     
  Stefan Grimme          : VdW corrections, initial TS optimization, DFT functionals, gCP, sTDA/sTD-DF 
  Waldemar Hujo          : DFT-NL                                        
  H. Jonsson             : NEB                                           
  Holger Kruse           : gCP                                           
  Marcel Mueller         : wB97X-3c, vDZP basis set                      
  Hagen Neugebauer       : wr2SCAN                                       
  Tobias Risthaus        : range-separated hybrid DFT                    
  Lukas Wittmann         : regularized MP2, r2SCAN double-hybrids, wr2SCAN        
                                                                         
We gratefully acknowledge several colleagues who have allowed us to      
interface, adapt or use parts of their codes:                            
  Ed Valeev, F. Pavosevic, A. Kumar             : LibInt (2-el integral package), F12 methods 
  Garnet Chan, S. Sharma, J. Yang, R. Olivares  : DMRG                   
  Ulf Ekstrom                                   : XCFun DFT Library      
  Mihaly Kallay                                 : mrcc  (arbitrary order and MRCC methods)
  Frank Weinhold                                : gennbo (NPA and NBO analysis)           
  Simon Mueller                                 : openCOSMO-RS                            
  Christopher J. Cramer and Donald G. Truhlar   : smd solvation model                     
  S Lehtola, MJT Oliveira, MAL Marques          : LibXC Library                           
  Liviu Ungur et al                             : ANISO software                          


 Your calculation uses the libint2 library for the computation of 2-el integrals
 For citations please refer to: http://libint.valeyev.net

 Your ORCA version has been built with support for libXC version: 6.2.2
 For citations please refer to: https://libxc.gitlab.io

 This ORCA versions uses:
   CBLAS   interface :  Fast vector & matrix operations
   LAPACKE interface :  Fast linear algebra routines
   SCALAPACK package :  Parallel linear algebra routines
   Shared memory     :  Shared parallel matrices
   BLAS/LAPACK       :  OpenBLAS 0.3.27  USE64BITINT DYNAMIC_ARCH NO_AFFINITY SkylakeX SINGLE_THREADED
        Core in use  :  SkylakeX
   Copyright (c) 2011-2014, The OpenBLAS Project


NOTE: MaxCore=5000 MB was set to SCF,MP2,MDCI,CIPSI,MRCI and CIS
      => If you want to overwrite this, your respective input block should be placed after the MaxCore statement
Your calculation utilizes the atom-pairwise dispersion correction
with the Becke-Johnson damping scheme (D3BJ)


Warning: RI is on but no J-basis has been assigned. Assigning Def2/J (nothing to worry about!)
================================================================================

----- Orbital basis set information -----
Your calculation utilizes the basis: def2-TZVP
   F. Weigend and R. Ahlrichs, Phys. Chem. Chem. Phys. 7, 3297 (2005).

----- AuxJ basis set information -----
Your calculation utilizes the auxiliary basis: def2/J
   F. Weigend, Phys. Chem. Chem. Phys. 8, 1057 (2006).

================================================================================
                                        WARNINGS
                       Please study these warnings very carefully!
================================================================================

WARNING: Old DensityContainer found on disk!
         Will remove this file - 
         If you want to keep old densities, please start your calculation with a different basename. 


WARNING: Geometry Optimization
  ===> : Switching off AutoStart
         For restart on a previous wavefunction, please use MOREAD

================================================================================
                                       INPUT FILE
================================================================================
NAME = honokiol3_EC2.inp
|  1> ! OPT B3LYP def2-TZVP TightSCF D3BJ RIJCOSX
|  2> 
|  3> %maxcore 5000
|  4> 
|  5> %pal
|  6> nprocs 25
|  7> end
|  8> 
|  9> * xyz 0 1
| 10> O           1.92382131859358      1.13228024120784      2.83747870816716
| 11>   O          -3.65176515159140     -1.88629870294520      2.12389821659310
| 12>   C           1.42210446289138      0.14064576722909      0.66328345329402
| 13>   C           0.09300036593619     -0.37978357349253      1.05436822287724
| 14>   C          -2.26178678851645     -0.72270409272521      0.50826895428764
| 15>   C          -0.99844362577852     -0.23755816105561      0.19702450721935
| 16>   C           3.12608879756286      0.35741615883148     -1.08235059901315
| 17>   C           1.87471952710426     -0.05715486481544     -0.64484659088947
| 18>   C           2.26881008956229      0.81977555857230      1.55756689804220
| 19>   C          -0.10700931659062     -1.06450277614176      2.25534779546197
| 20>   C          -2.42769891948714     -1.41018615785492      1.71565861008259
| 21>   C          -3.42352345182427     -0.47855562808363     -0.42764456456093
| 22>   C           3.58252582228203      0.10387163680356     -2.50453655468285
| 23>   C           3.96070930223294      0.98482112097065     -0.15987051310871
| 24>   C          -1.35160193429837     -1.58209159260954      2.57747400508381
| 25>   C           3.53811074481516      1.21361668319706      1.13984600352640
| 26>   C          -4.05946674163592     -1.74976028639074     -0.91641038320809
| 27>   C           2.48402180704970      0.22406730683514     -3.51837610828423
| 28>   C          -5.33865054056612     -2.07574048374930     -0.75441339590491
| 29>   C           2.11447809433294     -0.74268162369312     -4.34844266178163
| 30>   H          -0.87826111263066      0.29925092429714     -0.73243299168394
| 31>   H           1.22449454616572     -0.57130578292423     -1.34053035967418
| 32>   H           0.71966565921153     -1.20612675248638      2.93764704047786
| 33>   H          -4.18369778099977      0.14104352459399      0.06042312961361
| 34>   H          -3.05387408092339      0.09449853978057     -1.28115149228409
| 35>   H           4.03697777776301     -0.89002713011561     -2.57802446864610
| 36>   H           4.37406838873392      0.82294208982412     -2.74101493732459
| 37>   H           4.94780328792553      1.31312378846372     -0.46449575406701
| 38>   H          -1.50215927020272     -2.13183025221169      3.49737191045774
| 39>   H           4.17127374717691      1.72911972356202      1.85040764424545
| 40>   H          -3.39162730420078     -2.44408787676017     -1.41891797989879
| 41>   H           1.95515182714341      1.17199823877478     -3.53528964886559
| 42>   H           0.96363054517507      1.26608383986226      2.92387844411783
| 43>   H          -4.19754607006195     -2.08091594575992      1.34609032913546
| 44>   H          -5.73915859163418     -3.01033835266600     -1.12531349932107
| 45>   H          -6.03628057530860     -1.40324433266943     -0.26509872392775
| 46>   H           1.30827476505078     -0.60024903276984     -5.05677875362397
| 47>   H           2.60454213635974     -1.71081210894613     -4.34719122531690
| 48>   H          -4.43527850371538      0.62928834657748      2.48904527117072
| 49>   H          -3.41706074583109     -0.45175597967211      4.32344508084313
| 50>   O          -2.02250459425373      1.06332439279849      4.40389916170972
| 51>   C          -3.39442305793670      0.63149511769226      4.41623586927957
| 52>   C          -4.00469865313756      1.33440161236282      3.19515392136137
| 53>   C          -1.76793385175840      1.77227626630462      3.29492070313095
| 54>   O          -0.68528725478562      2.19000931656341      2.99488218749213
| 55>   O          -2.87856431092470      1.97399080530327      2.57057467183345
| 56>   H          -4.73155920319687      2.10253675040749      3.45522664325658
| 57>   H          -3.83840592362660      0.93906659500838      5.36080609054402
| 58>   H           1.90436799035711      4.75559539233059     -0.78424433780465
| 59>   H           2.20874579889867      3.12127666491977     -0.13499912507335
| 60>   C           1.47665638711475      3.77057127938188     -0.61097976389412
| 61>   H          -0.32675060698629      4.79281482912242      0.11641480531801
| 62>   C           0.14580583652022      3.80967782594472      0.14364700819104
| 63>   H           0.21119257919216      3.45620987080609      1.16850099648237
| 64>   O           1.11554159404138      3.20127954179499     -1.88358014690482
| 65>   O          -0.67505235255867      2.89581767037690     -0.60350587512508
| 66>   C          -0.09284227537813      2.61013057789361     -1.78554794329873
| 67>   O          -0.58495541975257      1.92082141034346     -2.62756449952782
| 68> *
| 69> 
| 70>                          ****END OF INPUT****
================================================================================

                       *****************************
                       * Geometry Optimization Run *
                       *****************************

Geometry optimization settings:
Update method            Update   .... BFGS
Choice of coordinates    CoordSys .... (2022) Redundant Internals
Initial Hessian          InHess   .... Almloef's Model
Max. no of cycles        MaxIter  .... 174

Convergence Tolerances:
Energy Change            TolE     ....  5.0000e-06 Eh
Max. Gradient            TolMAXG  ....  3.0000e-04 Eh/bohr
RMS Gradient             TolRMSG  ....  1.0000e-04 Eh/bohr
Max. Displacement        TolMAXD  ....  4.0000e-03 bohr
RMS Displacement         TolRMSD  ....  2.0000e-03 bohr
Strict Convergence                .... False

------------------------------------------------------------------------------
                        ORCA OPTIMIZATION COORDINATE SETUP
------------------------------------------------------------------------------

The optimization will be done in redundant internal coordinates (2022)
Making redundant internal coordinates   ...  (2022 redundants) done
Evaluating the initial hessian          ...  (Almloef) done
Evaluating the coordinates              ...  done
Calculating the B-matrix                .... done
Calculating the G-matrix                .... done
Diagonalizing the G-matrix              .... done
Small eigenvalue found = 4.815e-03
Small eigenvalue found = 8.457e-03
Small eigenvalue found = 1.158e-02
Small eigenvalue found = 1.708e-02
The first mode is                       ....  305
The number of degrees of freedom        ....  168

    -----------------------------------------------------------------
                    Redundant Internal Coordinates


    -----------------------------------------------------------------
         Definition                    Initial Value    Approx d2E/dq
    -----------------------------------------------------------------
      1. B(C   3,C   2)                  1.4800         0.448949   
      2. B(C   5,C   4)                  1.3886         0.627964   
      3. B(C   5,C   3)                  1.3952         0.613028   
      4. B(C   7,C   6)                  1.3890         0.627193   
      5. B(C   7,C   2)                  1.3983         0.606076   
      6. B(C   8,O   0)                  1.3619         0.620384   
      7. B(C   8,C   2)                  1.4064         0.588335   
      8. B(C   9,C   3)                  1.3969         0.609265   
      9. B(C  10,C   4)                  1.3993         0.603884   
     10. B(C  10,O   1)                  1.3754         0.590465   
     11. B(C  11,C   4)                  1.5117         0.399583   
     12. B(C  12,C   6)                  1.5150         0.394735   
     13. B(C  13,C   6)                  1.3933         0.617339   
     14. B(C  14,C   9)                  1.3859         0.634316   
     15. B(C  14,C  10)                  1.3893         0.626316   
     16. B(C  15,C   8)                  1.3931         0.617723   
     17. B(C  15,C  13)                  1.3857         0.634715   
     18. B(C  16,C  11)                  1.5031         0.412394   
     19. B(C  17,C  12)                  1.4997         0.417597   
     20. B(C  18,C  16)                  1.3300         0.778959   
     21. B(C  19,C  17)                  1.3267         0.788322   
     22. B(H  20,C   5)                  1.0800         0.373512   
     23. B(H  21,C   7)                  1.0822         0.370591   
     24. B(H  22,C   9)                  1.0812         0.371939   
     25. B(H  23,C  11)                  1.0954         0.352981   
     26. B(H  24,C  11)                  1.0925         0.356838   
     27. B(H  25,C  12)                  1.0953         0.353109   
     28. B(H  26,C  12)                  1.0952         0.353250   
     29. B(H  27,C  13)                  1.0839         0.368202   
     30. B(H  28,C  14)                  1.0822         0.370608   
     31. B(H  29,C  15)                  1.0824         0.370329   
     32. B(H  30,C  16)                  1.0866         0.364679   
     33. B(H  31,C  17)                  1.0856         0.365946   
     34. B(H  32,O   0)                  0.9733         0.495142   
     35. B(H  33,O   1)                  0.9699         0.501355   
     36. B(H  34,C  18)                  1.0823         0.370385   
     37. B(H  35,C  18)                  1.0855         0.366067   
     38. B(H  36,C  19)                  1.0826         0.370044   
     39. B(H  37,C  19)                  1.0851         0.366641   
     40. B(H  38,H  23)                  2.4900         0.000403   
     41. B(C  41,O  40)                  1.4383         0.468566   
     42. B(C  41,H  39)                  1.0875         0.363484   
     43. B(C  42,C  41)                  1.5354         0.366192   
     44. B(C  42,H  38)                  1.0868         0.364334   
     45. B(C  43,O  40)                  1.3406         0.670909   
     46. B(O  44,H  32)                  1.8915         0.016978   
     47. B(O  44,C  43)                  1.1986         1.130416   
     48. B(O  45,C  43)                  1.3412         0.669428   
     49. B(O  45,C  42)                  1.4378         0.469426   
     50. B(H  46,C  42)                  1.0890         0.361380   
     51. B(H  47,C  41)                  1.0881         0.362639   
     52. B(H  49,C   6)                  3.0623         0.000257   
     53. B(H  49,C   8)                  2.8575         0.000545   
     54. B(H  49,C  13)                  2.7630         0.000771   
     55. B(H  49,C  15)                  2.6517         0.001161   
     56. B(C  50,H  49)                  1.0882         0.362540   
     57. B(C  50,H  48)                  1.0878         0.363070   
     58. B(C  52,H  51)                  1.0912         0.358581   
     59. B(C  52,C  50)                  1.5304         0.373013   
     60. B(H  53,O  44)                  2.3964         0.002657   
     61. B(H  53,C  52)                  1.0861         0.365341   
     62. B(H  53,H  32)                  2.9059         0.000087   
     63. B(O  54,C  50)                  1.4401         0.465455   
     64. B(O  54,H  31)                  2.7479         0.000730   
     65. B(O  55,H  20)                  2.6077         0.001222   
     66. B(O  55,C  52)                  1.4378         0.469526   
     67. B(O  55,H  53)                  2.0590         0.009175   
     68. B(C  56,O  55)                  1.3483         0.652329   
     69. B(C  56,O  54)                  1.3488         0.651042   
     70. B(C  56,H  31)                  3.0535         0.000265   
     71. B(C  56,H  20)                  2.6582         0.001134   
     72. B(O  57,H  20)                  2.5114         0.001741   
     73. B(O  57,C  56)                  1.1943         1.148492   
     74. B(O  57,H  31)                  2.7994         0.000604   
     75. A(C   8,O   0,H  32)          111.3991         0.367061   
     76. A(C  10,O   1,H  33)          109.4043         0.364745   
     77. A(C   3,C   2,C   8)          122.8510         0.405970   
     78. A(C   3,C   2,C   7)          119.2202         0.408108   
     79. A(C   7,C   2,C   8)          117.9250         0.428247   
     80. A(C   5,C   3,C   9)          117.7939         0.431826   
     81. A(C   2,C   3,C   9)          121.8813         0.408488   
     82. A(C   2,C   3,C   5)          120.2862         0.408933   
     83. A(C   5,C   4,C  10)          118.2246         0.433007   
     84. A(C  10,C   4,C  11)          121.4969         0.399550   
     85. A(C   5,C   4,C  11)          120.2635         0.402311   
     86. A(C   4,C   5,H  20)          117.8896         0.355872   
     87. A(C   3,C   5,H  20)          119.5013         0.354422   
     88. A(C   3,C   5,C   4)          122.5728         0.434180   
     89. A(C   7,C   6,C  12)          121.1427         0.401359   
     90. A(C  12,C   6,C  13)          121.0924         0.400242   
     91. A(C  12,C   6,H  49)          122.1202         0.135222   
     92. A(C  13,C   6,H  49)           64.4182         0.140145   
     93. A(C   7,C   6,C  13)          117.7460         0.434631   
     94. A(C   7,C   6,H  49)           84.3794         0.140329   
     95. A(C   2,C   7,H  21)          118.3023         0.353268   
     96. A(C   6,C   7,H  21)          118.7275         0.355324   
     97. A(C   2,C   7,C   6)          122.9622         0.433194   
     98. A(O   0,C   8,C  15)          116.5976         0.430990   
     99. A(C   2,C   8,C  15)          119.6302         0.429712   
    100. A(C  15,C   8,H  49)           67.2844         0.149651   
    101. A(O   0,C   8,H  49)          111.5011         0.149210   
    102. A(O   0,C   8,C   2)          123.7718         0.427237   
    103. A(C   2,C   8,H  49)           89.9790         0.148985   
    104. A(C   3,C   9,C  14)          120.7638         0.434485   
    105. A(C  14,C   9,H  22)          119.4092         0.356225   
    106. A(C   3,C   9,H  22)          119.8216         0.353799   
    107. A(O   1,C  10,C  14)          117.5405         0.428244   
    108. A(C   4,C  10,C  14)          120.2782         0.432803   
    109. A(O   1,C  10,C   4)          122.1217         0.425455   
    110. A(C   4,C  11,H  23)          110.4144         0.326854   
    111. A(H  23,C  11,H  24)          106.6304         0.289516   
    112. A(C   4,C  11,H  24)          107.9617         0.327439   
    113. A(C   4,C  11,C  16)          112.9470         0.373866   
    114. A(C  16,C  11,H  23)          109.2468         0.328559   
    115. A(C  16,C  11,H  24)          109.4348         0.329148   
    116. A(H  25,C  12,H  26)          106.3441         0.289074   
    117. A(C  17,C  12,H  26)          109.3173         0.329281   
    118. A(C   6,C  12,H  26)          108.0925         0.326238   
    119. A(C  17,C  12,H  25)          109.3464         0.329259   
    120. A(C   6,C  12,H  25)          109.8670         0.326217   
    121. A(C   6,C  12,C  17)          113.6109         0.373887   
    122. A(C   6,C  13,H  49)           88.5285         0.154597   
    123. A(C   6,C  13,C  15)          120.8420         0.435565   
    124. A(C  15,C  13,H  27)          119.4264         0.355653   
    125. A(H  27,C  13,H  49)          110.2277         0.139471   
    126. A(C   6,C  13,H  27)          119.7246         0.353983   
    127. A(C  15,C  13,H  49)           70.7627         0.155010   
    128. A(C  10,C  14,H  28)          118.8415         0.355243   
    129. A(C   9,C  14,H  28)          120.8134         0.356009   
    130. A(C   9,C  14,C  10)          120.3436         0.436650   
    131. A(C   8,C  15,H  49)           83.7289         0.160969   
    132. A(C  13,C  15,H  29)          121.0630         0.356001   
    133. A(C  13,C  15,H  49)           79.6735         0.161412   
    134. A(C   8,C  15,C  13)          120.8259         0.435614   
    135. A(H  29,C  15,H  49)          105.4408         0.144439   
    136. A(C   8,C  15,H  29)          118.0856         0.354366   
    137. A(C  11,C  16,C  18)          125.0729         0.420328   
    138. A(C  18,C  16,H  30)          119.3980         0.367696   
    139. A(C  11,C  16,H  30)          115.5165         0.330333   
    140. A(C  12,C  17,C  19)          124.6522         0.422169   
    141. A(C  19,C  17,H  31)          119.3945         0.368671   
    142. A(C  12,C  17,H  31)          115.9354         0.331209   
    143. A(H  34,C  18,H  35)          116.8468         0.292887   
    144. A(C  16,C  18,H  34)          121.7233         0.368677   
    145. A(C  16,C  18,H  35)          121.4118         0.367936   
    146. A(H  36,C  19,H  37)          117.0308         0.292917   
    147. A(C  17,C  19,H  37)          121.5748         0.368791   
    148. A(C  17,C  19,H  36)          121.3944         0.369376   
    149. A(C  56,H  20,O  57)           26.5189         0.105200   
    150. A(C   5,H  20,C  56)          143.6968         0.144247   
    151. A(O  55,H  20,O  57)           52.0681         0.105287   
    152. A(C   5,H  20,O  55)          117.4534         0.144543   
    153. A(C   5,H  20,O  57)          169.5208         0.149174   
    154. A(O  55,H  20,C  56)           29.6500         0.103953   
    155. A(C  17,H  31,O  57)          132.1092         0.136138   
    156. A(C  17,H  31,O  54)          141.6564         0.138201   
    157. A(O  54,H  31,C  56)           26.2129         0.098580   
    158. A(C  17,H  31,C  56)          136.8068         0.128586   
    159. A(C  56,H  31,O  57)           23.0229         0.098178   
    160. A(O  54,H  31,O  57)           47.9579         0.100407   
    161. A(O   0,H  32,O  44)          158.5134         0.195141   
    162. A(O  44,H  32,H  53)           55.1652         0.101143   
    163. A(O   0,H  32,H  53)          107.7842         0.115054   
    164. A(C  41,O  40,C  43)          110.3032         0.413306   
    165. A(H  39,C  41,O  40)          108.5537         0.335183   
    166. A(C  42,C  41,H  47)          113.5025         0.323631   
    167. A(O  40,C  41,H  47)          108.1665         0.335053   
    168. A(H  39,C  41,H  47)          110.3136         0.291589   
    169. A(O  40,C  41,C  42)          103.5826         0.374120   
    170. A(H  39,C  41,C  42)          112.3267         0.323755   
    171. A(O  45,C  42,H  46)          108.2239         0.334962   
    172. A(C  41,C  42,H  46)          113.4693         0.323446   
    173. A(H  38,C  42,H  46)          110.3859         0.291537   
    174. A(C  41,C  42,O  45)          103.7565         0.374238   
    175. A(H  38,C  42,O  45)          108.4619         0.335415   
    176. A(H  38,C  42,C  41)          112.1571         0.323879   
    177. A(O  44,C  43,O  45)          124.0806         0.484644   
    178. A(O  40,C  43,O  45)          111.6564         0.440578   
    179. A(O  40,C  43,O  44)          124.2563         0.484842   
    180. A(H  32,O  44,H  53)           84.4544         0.121509   
    181. A(C  43,O  44,H  53)          135.4664         0.186553   
    182. A(H  32,O  44,C  43)          128.7990         0.237446   
    183. A(C  42,O  45,C  43)          110.3079         0.413279   
    184. A(C  13,H  49,C  15)           29.5638         0.102706   
    185. A(C  13,H  49,C  50)          152.1316         0.139294   
    186. A(C  15,H  49,C  50)          167.6429         0.144172   
    187. A(C   6,H  49,C   8)           56.6343         0.098006   
    188. A(C   6,H  49,C  13)           27.0533         0.098742   
    189. A(C   6,H  49,C  15)           49.4030         0.099686   
    190. A(C   6,H  49,C  50)          127.2108         0.128214   
    191. A(C   8,H  49,C  13)           50.8930         0.100550   
    192. A(C   8,H  49,C  15)           28.9867         0.101671   
    193. A(C   8,H  49,C  50)          138.9227         0.135496   
    194. A(C  52,C  50,O  54)          103.1659         0.374882   
    195. A(H  49,C  50,O  54)          108.6239         0.334667   
    196. A(H  48,C  50,O  54)          108.4095         0.334749   
    197. A(H  49,C  50,C  52)          112.6196         0.324598   
    198. A(H  48,C  50,C  52)          113.4115         0.324676   
    199. A(H  48,C  50,H  49)          110.2104         0.291524   
    200. A(H  53,C  52,O  55)          108.5348         0.335581   
    201. A(H  51,C  52,O  55)          108.2078         0.334541   
    202. A(C  50,C  52,O  55)          102.9440         0.375446   
    203. A(H  51,C  52,H  53)          110.0515         0.291307   
    204. A(C  50,C  52,H  53)          113.8677         0.325009   
    205. A(C  50,C  52,H  51)          112.7882         0.324014   
    206. A(O  44,H  53,C  52)          150.2999         0.154881   
    207. A(H  32,H  53,O  44)           40.3804         0.096980   
    208. A(H  32,H  53,C  52)          146.1925         0.113608   
    209. A(H  31,O  54,C  56)           89.6427         0.153277   
    210. A(H  31,O  54,C  50)          138.2843         0.148576   
    211. A(C  50,O  54,C  56)          109.4918         0.410622   
    212. A(H  20,O  55,C  56)           77.2508         0.161258   
    213. A(H  20,O  55,C  52)          134.6746         0.156076   
    214. A(C  52,O  55,C  56)          110.1047         0.411400   
    215. A(H  20,C  56,O  57)           69.8677         0.170691   
    216. A(H  20,C  56,O  55)           73.0992         0.160874   
    217. A(H  20,C  56,O  54)          132.4164         0.160841   
    218. A(O  55,C  56,O  57)          124.2276         0.483749   
    219. A(O  54,C  56,O  57)          124.8116         0.483572   
    220. A(O  54,C  56,O  55)          110.9603         0.436155   
    221. A(H  20,C  56,H  31)           90.9026         0.099707   
    222. A(H  31,C  56,O  57)           66.4549         0.147805   
    223. A(H  31,C  56,O  55)          153.0995         0.140739   
    224. A(H  31,C  56,O  54)           64.1444         0.140715   
    225. A(H  31,O  57,C  56)           90.5222         0.159025   
    226. A(H  20,O  57,C  56)           83.6135         0.177975   
    227. A(H  20,O  57,H  31)          100.2499         0.102887   
    228. D(C   5,C   3,C   2,C   8)    137.9812         0.013740   
    229. D(C   9,C   3,C   2,C   7)    134.9442         0.013740   
    230. D(C   5,C   3,C   2,C   7)    -42.7474         0.013740   
    231. D(C   9,C   3,C   2,C   8)    -44.3272         0.013740   
    232. D(H  20,C   5,C   3,C   9)    179.1294         0.025970   
    233. D(H  20,C   5,C   4,C  11)     -0.8992         0.027330   
    234. D(C   3,C   5,C   4,C  10)     -1.7148         0.027330   
    235. D(C   4,C   5,C   3,C   2)    179.1525         0.025970   
    236. D(C   4,C   5,C   3,C   9)      1.3683         0.025970   
    237. D(H  20,C   5,C   4,C  10)   -179.5101         0.027330   
    238. D(H  20,C   5,C   3,C   2)     -3.0864         0.025970   
    239. D(C   3,C   5,C   4,C  11)    176.8961         0.027330   
    240. D(H  21,C   7,C   2,C   3)      1.2259         0.025351   
    241. D(C   6,C   7,C   2,C   3)   -177.7335         0.025351   
    242. D(C   6,C   7,C   2,C   8)      1.5738         0.025351   
    243. D(H  21,C   7,C   6,C  12)      0.1504         0.029625   
    244. D(H  21,C   7,C   6,C  13)   -178.2854         0.029625   
    245. D(C   2,C   7,C   6,H  49)    -56.5087         0.029625   
    246. D(C   2,C   7,C   6,C  13)      0.6698         0.029625   
    247. D(H  21,C   7,C   2,C   8)   -179.4669         0.025351   
    248. D(C   2,C   7,C   6,C  12)    179.1056         0.029625   
    249. D(O   0,C   8,C   2,C   7)    176.7856         0.025863   
    250. D(C  15,C   8,O   0,H  32)    150.3120         0.031168   
    251. D(C  15,C   8,C   2,C   7)     -2.9727         0.025863   
    252. D(H  49,C   8,O   0,H  32)     75.7927         0.031168   
    253. D(O   0,C   8,C   2,C   3)     -3.9341         0.025863   
    254. D(C  15,C   8,C   2,C   3)    176.3076         0.025863   
    255. D(H  49,C   8,C   2,C   3)   -120.0811         0.025863   
    256. D(C   2,C   8,O   0,H  32)    -29.4531         0.031168   
    257. D(C  14,C   9,C   3,C   2)   -177.7669         0.025633   
    258. D(C  14,C   9,C   3,C   5)     -0.0202         0.025633   
    259. D(H  22,C   9,C   3,C   5)    179.1249         0.025633   
    260. D(H  22,C   9,C   3,C   2)      1.3782         0.025633   
    261. D(C   4,C  10,O   1,H  33)     28.3033         0.025412   
    262. D(C  14,C  10,O   1,H  33)   -154.4988         0.025412   
    263. D(C  14,C  10,C   4,C   5)      0.7176         0.025158   
    264. D(O   1,C  10,C   4,C  11)     -0.7524         0.025158   
    265. D(C  14,C  10,C   4,C  11)   -177.8754         0.025158   
    266. D(O   1,C  10,C   4,C   5)    177.8405         0.025158   
    267. D(H  24,C  11,C   4,C   5)     -0.0218         0.011851   
    268. D(C  16,C  11,C   4,C   5)    121.1156         0.011851   
    269. D(H  23,C  11,C   4,C   5)   -116.2328         0.011851   
    270. D(C  16,C  11,C   4,C  10)    -60.3198         0.011851   
    271. D(H  23,C  11,C   4,C  10)     62.3318         0.011851   
    272. D(H  25,C  12,C   6,C  13)     92.0630         0.012375   
    273. D(H  25,C  12,C   6,H  49)    169.5432         0.012375   
    274. D(C  17,C  12,C   6,C  13)   -145.0916         0.012375   
    275. D(C  17,C  12,C   6,H  49)    -67.6115         0.012375   
    276. D(H  25,C  12,C   6,C   7)    -86.3204         0.012375   
    277. D(C  17,C  12,C   6,C   7)     36.5249         0.012375   
    278. D(C  15,C  13,C   6,C  12)   -179.9710         0.030787   
    279. D(H  27,C  13,C   6,C  12)      1.0009         0.030787   
    280. D(H  27,C  13,C   6,C   7)    179.4376         0.030787   
    281. D(H  27,C  13,C   6,H  49)   -112.5572         0.030787   
    282. D(C  15,C  13,C   6,C   7)     -1.5343         0.030787   
    283. D(C  15,C  13,C   6,H  49)     66.4709         0.030787   
    284. D(C   9,C  14,C  10,C   4)      0.5685         0.027178   
    285. D(H  28,C  14,C   9,C   3)    178.6209         0.027922   
    286. D(C   9,C  14,C  10,O   1)   -176.6836         0.027178   
    287. D(C  10,C  14,C   9,H  22)    179.9257         0.027922   
    288. D(H  28,C  14,C   9,H  22)     -0.5276         0.027922   
    289. D(H  28,C  14,C  10,O   1)      3.7609         0.027178   
    290. D(C  10,C  14,C   9,C   3)     -0.9257         0.027922   
    291. D(H  28,C  14,C  10,C   4)   -178.9870         0.027178   
    292. D(H  29,C  15,C  13,H  49)   -101.8983         0.032674   
    293. D(C   8,C  15,C  13,C   6)      0.1194         0.032674   
    294. D(C   8,C  15,C  13,H  27)    179.1503         0.032674   
    295. D(H  29,C  15,C  13,C   6)   -178.0087         0.032674   
    296. D(H  29,C  15,C   8,H  49)    104.1791         0.030828   
    297. D(H  29,C  15,C  13,H  27)      1.0222         0.032674   
    298. D(H  29,C  15,C   8,C   2)   -179.6226         0.030828   
    299. D(H  29,C  15,C   8,O   0)      0.6020         0.030828   
    300. D(C   8,C  15,C  13,H  49)     76.2298         0.032674   
    301. D(C  13,C  15,C   8,H  49)    -74.0034         0.030828   
    302. D(C  13,C  15,C   8,C   2)      2.1948         0.030828   
    303. D(C  13,C  15,C   8,O   0)   -177.5805         0.030828   
    304. D(H  30,C  16,C  11,H  23)   -179.9252         0.012591   
    305. D(H  30,C  16,C  11,C   4)    -56.6245         0.012591   
    306. D(C  18,C  16,C  11,H  24)   -117.6340         0.012591   
    307. D(C  18,C  16,C  11,C   4)    122.0677         0.012591   
    308. D(C  18,C  16,C  11,H  23)     -1.2330         0.012591   
    309. D(H  31,C  17,C  12,H  25)    179.7436         0.012900   
    310. D(H  31,C  17,C  12,C   6)     56.6125         0.012900   
    311. D(C  19,C  17,C  12,H  26)    117.3404         0.012900   
    312. D(C  19,C  17,C  12,H  25)      1.2931         0.012900   
    313. D(C  19,C  17,C  12,C   6)   -121.8379         0.012900   
    314. D(H  35,C  18,C  16,C  11)      1.9024         0.043601   
    315. D(H  35,C  18,C  16,H  30)   -179.4523         0.043601   
    316. D(H  34,C  18,C  16,H  30)     -1.0469         0.043601   
    317. D(H  34,C  18,C  16,C  11)   -179.6922         0.043601   
    318. D(H  37,C  19,C  17,H  31)   -178.6952         0.044767   
    319. D(H  37,C  19,C  17,C  12)     -0.2946         0.044767   
    320. D(H  36,C  19,C  17,H  31)      1.2052         0.044767   
    321. D(H  36,C  19,C  17,C  12)    179.6057         0.044767   
    322. D(C  56,H  20,C   5,C   3)    -54.9498         0.144868   
    323. D(O  55,H  20,C   5,C   4)    104.1730         0.144868   
    324. D(O  55,H  20,C   5,C   3)    -73.6923         0.144868   
    325. D(O  57,H  20,C   5,C   4)    104.7801         0.144868   
    326. D(O  57,H  20,C   5,C   3)    -73.0852         0.144868   
    327. D(C  56,H  31,C  17,C  12)    -73.2675         0.137797   
    328. D(O  57,H  31,C  17,C  19)     73.4543         0.137797   
    329. D(O  57,H  31,C  17,C  12)   -105.0826         0.137797   
    330. D(O  54,H  31,C  17,C  19)    145.2523         0.137797   
    331. D(O  54,H  31,C  17,C  12)    -33.2847         0.137797   
    332. D(H  53,H  32,O   0,C   8)    -60.1994         0.304808   
    333. D(O  44,H  32,O   0,C   8)    -94.8249         0.304808   
    334. D(H  47,C  41,O  40,C  43)   -127.1315         0.017305   
    335. D(C  42,C  41,O  40,C  43)     -6.3967         0.017305   
    336. D(H  39,C  41,O  40,C  43)    113.1633         0.017305   
    337. D(O  45,C  42,C  41,H  39)   -111.6860         0.010734   
    338. D(H  38,C  42,C  41,H  47)   -120.8354         0.010734   
    339. D(H  38,C  42,C  41,H  39)      5.1679         0.010734   
    340. D(O  45,C  42,C  41,O  40)      5.2567         0.010734   
    341. D(H  38,C  42,C  41,O  40)    122.1105         0.010734   
    342. D(O  45,C  42,C  41,H  47)    122.3107         0.010734   
    343. D(O  45,C  43,O  40,C  41)      5.1799         0.033446   
    344. D(O  44,C  43,O  40,C  41)   -175.7234         0.033446   
    345. D(H  53,O  44,C  43,O  45)     -1.2367         0.120687   
    346. D(C  43,O  44,H  32,H  53)    147.2353         0.001668   
    347. D(H  53,O  44,H  32,O   0)     41.2374         0.001668   
    348. D(H  32,O  44,C  43,O  45)   -131.0571         0.120687   
    349. D(C  43,O  44,H  32,O   0)   -171.5273         0.001668   
    350. D(H  53,O  44,C  43,O  40)    179.7770         0.120687   
    351. D(H  32,O  44,C  43,O  40)     49.9566         0.120687   
    352. D(C  43,O  45,C  42,H  46)    118.2225         0.017369   
    353. D(C  43,O  45,C  42,C  41)     -2.5931         0.017369   
    354. D(C  43,O  45,C  42,H  38)   -122.0052         0.017369   
    355. D(C  42,O  45,C  43,O  44)    179.4913         0.033285   
    356. D(C  42,O  45,C  43,O  40)     -1.4101         0.033285   
    357. D(C   8,H  49,C  15,H  29)   -117.4521         0.001501   
    358. D(C   8,H  49,C  15,C  13)    122.9581         0.001501   
    359. D(C  13,H  49,C  15,C   8)   -122.9581         0.001501   
    360. D(C  50,H  49,C  15,H  29)   -131.4148         0.001501   
    361. D(C  50,H  49,C  15,C  13)    108.9954         0.001501   
    362. D(C   8,H  49,C  13,C  15)    -31.6018         0.001500   
    363. D(C   8,H  49,C  13,C   6)     91.9118         0.001500   
    364. D(C  15,H  49,C  13,H  27)   -115.2125         0.001500   
    365. D(C  15,H  49,C  13,C   6)    123.5136         0.001500   
    366. D(C  50,H  49,C  13,H  27)     90.4386         0.001500   
    367. D(C  50,H  49,C  13,C  15)   -154.3489         0.001500   
    368. D(C  50,H  49,C  13,C   6)    -30.8353         0.001500   
    369. D(C  13,H  49,C   8,C   2)    -90.1772         0.001500   
    370. D(C  13,H  49,C   8,O   0)    143.1446         0.001500   
    371. D(C  15,H  49,C   8,C   2)   -122.4204         0.001500   
    372. D(C  15,H  49,C   8,O   0)    110.9015         0.001500   
    373. D(C  50,H  49,C   8,C  15)    175.4927         0.001500   
    374. D(C  50,H  49,C   8,C   2)     53.0723         0.001500   
    375. D(C  50,H  49,C   8,O   0)    -73.6059         0.001500   
    376. D(C  13,H  49,C   6,C   7)    124.4550         0.001500   
    377. D(C  50,H  49,C  15,C   8)    -13.9627         0.001501   
    378. D(C  15,H  49,C   6,C  13)    -32.8042         0.001500   
    379. D(C  15,H  49,C   6,C  12)   -144.8582         0.001500   
    380. D(C  15,H  49,C   6,C   7)     91.6508         0.001500   
    381. D(C  13,H  49,C  15,H  29)    119.5898         0.001501   
    382. D(C  50,H  49,C   6,C  13)    162.4916         0.001500   
    383. D(C  50,H  49,C   6,C  12)     50.4376         0.001500   
    384. D(C  50,H  49,C   6,C   7)    -73.0534         0.001500   
    385. D(C  52,C  50,H  49,C   8)     26.4303         0.155200   
    386. D(C  52,C  50,H  49,C  13)    123.0913         0.155200   
    387. D(C  52,C  50,H  49,C  15)     36.6811         0.155200   
    388. D(H  48,C  50,H  49,C   6)   -126.1902         0.155200   
    389. D(H  48,C  50,H  49,C   8)    154.1697         0.155200   
    390. D(H  48,C  50,H  49,C  13)   -109.1693         0.155200   
    391. D(H  48,C  50,H  49,C  15)    164.4205         0.155200   
    392. D(H  53,C  52,C  50,O  54)    134.8636         0.011112   
    393. D(H  53,C  52,C  50,H  49)     17.9419         0.011112   
    394. D(H  53,C  52,C  50,H  48)   -108.0901         0.011112   
    395. D(H  51,C  52,C  50,O  54)    -98.7977         0.011112   
    396. D(H  51,C  52,C  50,H  49)    144.2806         0.011112   
    397. D(H  51,C  52,C  50,H  48)     18.2487         0.011112   
    398. D(H  32,H  53,C  52,O  55)     57.7593         0.147976   
    399. D(H  32,H  53,C  52,H  51)    176.0010         0.147976   
    400. D(H  32,H  53,C  52,C  50)    -56.2379         0.147976   
    401. D(O  44,H  53,C  52,O  55)    -23.8969         0.147976   
    402. D(O  44,H  53,C  52,H  51)     94.3449         0.147976   
    403. D(O  44,H  53,C  52,C  50)   -137.8940         0.147976   
    404. D(H  32,H  53,O  44,C  43)   -143.0299         0.001505   
    405. D(C  52,H  53,O  44,H  32)    121.8161         0.001505   
    406. D(C  52,H  53,O  44,C  43)    -21.2138         0.001505   
    407. D(O  44,H  53,H  32,O   0)   -165.3115         0.001500   
    408. D(C  52,H  53,H  32,O  44)   -130.8285         0.001500   
    409. D(C  52,H  53,H  32,O   0)     63.8600         0.001500   
    410. D(H  31,O  54,C  50,H  49)     -9.6489         0.018502   
    411. D(C  56,O  54,C  50,C  52)    -16.5866         0.018502   
    412. D(C  56,O  54,C  50,H  49)    103.1261         0.018502   
    413. D(C  56,O  54,C  50,H  48)   -137.1125         0.018502   
    414. D(C  56,O  54,H  31,O  57)     13.0661         0.001500   
    415. D(C  56,O  54,H  31,C  17)    -95.3194         0.001500   
    416. D(C  50,O  54,H  31,C  56)    119.6334         0.001500   
    417. D(H  31,O  54,C  50,H  48)    110.1126         0.018502   
    418. D(C  50,O  54,H  31,O  57)    132.6995         0.001500   
    419. D(C  50,O  54,H  31,C  17)     24.3140         0.001500   
    420. D(H  20,O  55,C  52,H  51)   -162.0139         0.020206   
    421. D(H  20,O  55,C  52,C  50)     78.3840         0.020206   
    422. D(C  56,O  55,C  52,H  53)   -134.4112         0.020206   
    423. D(C  56,O  55,C  52,H  51)    106.1848         0.020206   
    424. D(C  56,O  55,C  52,C  50)    -13.4174         0.020206   
    425. D(C  56,O  55,H  20,O  57)    -22.4759         0.001501   
    426. D(C  56,O  55,H  20,C   5)    157.3842         0.001501   
    427. D(C  52,O  55,H  20,C  56)   -105.7769         0.001501   
    428. D(C  52,O  55,H  20,O  57)   -128.2528         0.001501   
    429. D(H  20,O  55,C  52,H  53)    -42.6099         0.020206   
    430. D(C  52,O  55,H  20,C   5)     51.6072         0.001501   
    431. D(H  31,C  56,O  55,H  20)    -55.7712         0.043394   
    432. D(H  31,C  56,O  55,C  52)     77.4490         0.043394   
    433. D(H  20,C  56,O  55,C  52)    133.2202         0.043394   
    434. D(O  57,C  56,O  55,H  20)     50.0753         0.043394   
    435. D(O  57,C  56,O  55,C  52)   -176.7045         0.043394   
    436. D(O  54,C  56,O  55,H  20)   -129.6819         0.043394   
    437. D(O  54,C  56,O  55,C  52)      3.5384         0.043394   
    438. D(H  20,C  56,O  54,C  50)    -76.9276         0.040499   
    439. D(O  57,C  56,O  54,H  31)    -28.6421         0.040499   
    440. D(O  57,C  56,O  54,C  50)   -170.7945         0.040499   
    441. D(O  55,C  56,O  54,H  31)    151.1133         0.040499   
    442. D(O  55,C  56,O  54,C  50)      8.9610         0.040499   
    443. D(O  57,C  56,H  31,O  54)    154.5773         0.001500   
    444. D(O  57,C  56,H  31,C  17)    -89.9072         0.001500   
    445. D(O  55,C  56,H  31,O  57)    119.8167         0.001500   
    446. D(O  55,C  56,H  31,O  54)    -85.6060         0.001500   
    447. D(O  55,C  56,H  31,C  17)     29.9095         0.001500   
    448. D(O  54,C  56,H  31,O  57)   -154.5773         0.001500   
    449. D(H  20,C  56,O  54,H  31)     65.2248         0.040499   
    450. D(O  54,C  56,H  31,C  17)    115.5155         0.001500   
    451. D(O  57,C  56,H  20,O  55)   -137.5200         0.001501   
    452. D(O  57,C  56,H  20,C   5)   -172.7157         0.001501   
    453. D(O  55,C  56,H  20,O  57)    137.5200         0.001501   
    454. D(O  55,C  56,H  20,C   5)    -35.1957         0.001501   
    455. D(O  54,C  56,H  20,O  55)    103.2273         0.001501   
    456. D(O  54,C  56,H  20,O  57)   -119.2528         0.001501   
    457. D(O  54,C  56,H  20,C   5)     68.0316         0.001501   
    458. D(H  31,O  57,C  56,H  20)   -100.2557         0.147320   
    459. D(H  31,O  57,C  56,O  55)   -151.6553         0.147320   
    460. D(H  31,O  57,C  56,O  54)     28.0685         0.147320   
    461. D(H  20,O  57,C  56,H  31)    100.2557         0.147320   
    462. D(H  20,O  57,C  56,O  55)    -51.3996         0.147320   
    463. D(H  20,O  57,C  56,O  54)    128.3242         0.147320   
    464. D(H  20,O  57,H  31,C  56)    -83.6042         0.001500   
    465. D(H  20,O  57,H  31,O  54)    -98.3974         0.001500   
    466. D(H  20,O  57,H  31,C  17)     29.0840         0.001500   
    467. D(C  56,O  57,H  31,O  54)    -14.7932         0.001500   
    468. D(C  56,O  57,H  31,C  17)    112.6882         0.001500   
    469. D(H  31,O  57,H  20,C  56)     89.3743         0.001502   
    470. D(H  31,O  57,H  20,O  55)    114.4345         0.001502   
    471. D(H  31,O  57,H  20,C   5)    113.7515         0.001502   
    472. D(C  56,O  57,H  20,O  55)     25.0602         0.001502   
    473. D(C  56,O  57,H  20,C   5)     24.3772         0.001502   
    -----------------------------------------------------------------

Number of atoms                         .... 58
Number of degrees of freedom            .... 473


         *************************************************************
         *                GEOMETRY OPTIMIZATION CYCLE   1            *
         *************************************************************
---------------------------------
CARTESIAN COORDINATES (ANGSTROEM)
---------------------------------
  O      1.923821    1.132280    2.837479
  O     -3.651765   -1.886299    2.123898
  C      1.422104    0.140646    0.663283
  C      0.093000   -0.379784    1.054368
  C     -2.261787   -0.722704    0.508269
  C     -0.998444   -0.237558    0.197025
  C      3.126089    0.357416   -1.082351
  C      1.874720   -0.057155   -0.644847
  C      2.268810    0.819776    1.557567
  C     -0.107009   -1.064503    2.255348
  C     -2.427699   -1.410186    1.715659
  C     -3.423523   -0.478556   -0.427645
  C      3.582526    0.103872   -2.504537
  C      3.960709    0.984821   -0.159871
  C     -1.351602   -1.582092    2.577474
  C      3.538111    1.213617    1.139846
  C     -4.059467   -1.749760   -0.916410
  C      2.484022    0.224067   -3.518376
  C     -5.338651   -2.075740   -0.754413
  C      2.114478   -0.742682   -4.348443
  H     -0.878261    0.299251   -0.732433
  H      1.224495   -0.571306   -1.340530
  H      0.719666   -1.206127    2.937647
  H     -4.183698    0.141044    0.060423
  H     -3.053874    0.094499   -1.281151
  H      4.036978   -0.890027   -2.578024
  H      4.374068    0.822942   -2.741015
  H      4.947803    1.313124   -0.464496
  H     -1.502159   -2.131830    3.497372
  H      4.171274    1.729120    1.850408
  H     -3.391627   -2.444088   -1.418918
  H      1.955152    1.171998   -3.535290
  H      0.963631    1.266084    2.923878
  H     -4.197546   -2.080916    1.346090
  H     -5.739159   -3.010338   -1.125313
  H     -6.036281   -1.403244   -0.265099
  H      1.308275   -0.600249   -5.056779
  H      2.604542   -1.710812   -4.347191
  H     -4.435279    0.629288    2.489045
  H     -3.417061   -0.451756    4.323445
  O     -2.022505    1.063324    4.403899
  C     -3.394423    0.631495    4.416236
  C     -4.004699    1.334402    3.195154
  C     -1.767934    1.772276    3.294921
  O     -0.685287    2.190009    2.994882
  O     -2.878564    1.973991    2.570575
  H     -4.731559    2.102537    3.455227
  H     -3.838406    0.939067    5.360806
  H      1.904368    4.755595   -0.784244
  H      2.208746    3.121277   -0.134999
  C      1.476656    3.770571   -0.610980
  H     -0.326751    4.792815    0.116415
  C      0.145806    3.809678    0.143647
  H      0.211193    3.456210    1.168501
  O      1.115542    3.201280   -1.883580
  O     -0.675052    2.895818   -0.603506
  C     -0.092842    2.610131   -1.785548
  O     -0.584955    1.920821   -2.627564

----------------------------
CARTESIAN COORDINATES (A.U.)
----------------------------
  NO LB      ZA    FRAG     MASS         X           Y           Z
   0 O     8.0000    0    15.999    3.635495    2.139700    5.362058
   1 O     8.0000    0    15.999   -6.900836   -3.564588    4.013586
   2 C     6.0000    0    12.011    2.687388    0.265782    1.253424
   3 C     6.0000    0    12.011    0.175745   -0.717687    1.992467
   4 C     6.0000    0    12.011   -4.274158   -1.365713    0.960489
   5 C     6.0000    0    12.011   -1.886785   -0.448920    0.372322
   6 C     6.0000    0    12.011    5.907452    0.675419   -2.045346
   7 C     6.0000    0    12.011    3.542706   -0.108007   -1.218583
   8 C     6.0000    0    12.011    4.287430    1.549151    2.943375
   9 C     6.0000    0    12.011   -0.202218   -2.011619    4.261990
  10 C     6.0000    0    12.011   -4.587686   -2.664866    3.242125
  11 C     6.0000    0    12.011   -6.469522   -0.904339   -0.808131
  12 C     6.0000    0    12.011    6.769993    0.196289   -4.732888
  13 C     6.0000    0    12.011    7.484656    1.861042   -0.302111
  14 C     6.0000    0    12.011   -2.554157   -2.989720    4.870720
  15 C     6.0000    0    12.011    6.686060    2.293403    2.153997
  16 C     6.0000    0    12.011   -7.671280   -3.306568   -1.731765
  17 C     6.0000    0    12.011    4.694121    0.423426   -6.648767
  18 C     6.0000    0    12.011  -10.088587   -3.922581   -1.425635
  19 C     6.0000    0    12.011    3.995785   -1.403465   -8.217366
  20 H     1.0000    0     1.008   -1.659673    0.565502   -1.384098
  21 H     1.0000    0     1.008    2.313959   -1.079611   -2.533235
  22 H     1.0000    0     1.008    1.359971   -2.279249    5.551348
  23 H     1.0000    0     1.008   -7.906043    0.266534    0.114183
  24 H     1.0000    0     1.008   -5.770986    0.178576   -2.421025
  25 H     1.0000    0     1.008    7.628782   -1.681908   -4.871760
  26 H     1.0000    0     1.008    8.265791    1.555135   -5.179768
  27 H     1.0000    0     1.008    9.349993    2.481444   -0.877770
  28 H     1.0000    0     1.008   -2.838670   -4.028575    6.609075
  29 H     1.0000    0     1.008    7.882565    3.267563    3.496764
  30 H     1.0000    0     1.008   -6.409247   -4.618657   -2.681366
  31 H     1.0000    0     1.008    3.694702    2.214756   -6.680729
  32 H     1.0000    0     1.008    1.820998    2.392552    5.525330
  33 H     1.0000    0     1.008   -7.932213   -3.932361    2.543742
  34 H     1.0000    0     1.008  -10.845438   -5.688715   -2.126534
  35 H     1.0000    0     1.008  -11.406917   -2.651747   -0.500964
  36 H     1.0000    0     1.008    2.472281   -1.134306   -9.555927
  37 H     1.0000    0     1.008    4.921871   -3.232966   -8.215001
  38 H     1.0000    0     1.008   -8.381462    1.189183    4.703614
  39 H     1.0000    0     1.008   -6.457309   -0.853695    8.170127
  40 O     8.0000    0    15.999   -3.821980    2.009392    8.322163
  41 C     6.0000    0    12.011   -6.414530    1.193353    8.345476
  42 C     6.0000    0    12.011   -7.567784    2.521654    6.037966
  43 C     6.0000    0    12.011   -3.340911    3.349117    6.226498
  44 O     8.0000    0    15.999   -1.295005    4.138518    5.659507
  45 O     8.0000    0    15.999   -5.439698    3.730302    4.857682
  46 H     1.0000    0     1.008   -8.941351    3.973219    6.529432
  47 H     1.0000    0     1.008   -7.253536    1.774579   10.130455
  48 H     1.0000    0     1.008    3.598734    8.986773   -1.482007
  49 H     1.0000    0     1.008    4.173925    5.898358   -0.255111
  50 C     6.0000    0    12.011    2.790476    7.125347   -1.154584
  51 H     1.0000    0     1.008   -0.617469    9.057107    0.219992
  52 C     6.0000    0    12.011    0.275533    7.199248    0.271454
  53 H     1.0000    0     1.008    0.399096    6.531290    2.208147
  54 O     8.0000    0    15.999    2.108068    6.049542   -3.559451
  55 O     8.0000    0    15.999   -1.275664    5.472302   -1.140461
  56 C     6.0000    0    12.011   -0.175446    4.932432   -3.374197
  57 O     8.0000    0    15.999   -1.105406    3.629826   -4.965377

--------------------------------
INTERNAL COORDINATES (ANGSTROEM)
--------------------------------
 O      0   0   0     0.000000000000     0.00000000     0.00000000
 O      1   0   0     6.380296266362     0.00000000     0.00000000
 C      1   2   0     2.441758329481    61.88250812     0.00000000
 C      3   1   2     1.479970167344    95.28109381     0.25425647
 C      2   1   3     2.428219549375    49.26749891   331.57185913
 C      5   2   1     1.388623645083   146.85953823    20.16368773
 C      3   1   2     2.449038639968   117.11435939   180.80244611
 C      7   3   1     1.388957861787    28.62302880   182.67454605
 C      1   2   3     1.361929025486    90.44095331   358.29035320
 C      4   3   1     1.396852244637   121.88126610   313.84208798
 C      2   1   3     1.375383900042    24.72693578   359.47318115
 C      5   2   1     1.511679417874    92.83247381   203.00310645
 C      7   3   1     1.515002466892   149.76006545   181.15443521
 C      7   3   1     1.393268776017    89.12462711     3.26736776
 C     10   4   3     1.385883928008   120.76381201   182.23314546
 C     14   7   3     1.385712803448   120.84197506   358.78654349
 C     12   5   2     1.503089211137   112.94696305   299.31880472
 C     13   7   3     1.499676202059   113.61093272    37.37568005
 C     17  12   5     1.329968911069   125.07289699   122.06766957
 C     18  13   7     1.326716448048   124.65224842   238.16205623
 H      6   5   2     1.080045866087   117.88964780   182.38469255
 H      8   7   3     1.082182793515   118.72747856   181.04483466
 H     10   4   3     1.081194305406   119.82155113     1.37822677
 H     12   5   2     1.095435162314   110.41442181    61.97042366
 H     12   5   2     1.092476916180   107.96169891   178.18136849
 H     13   7   3     1.095336392266   109.86700079   274.53032333
 H     13   7   3     1.095227819392   108.09245222   158.88300044
 H     14   7   3     1.083943594244   119.72458985   179.75847733
 H     15  10   4     1.082170162944   120.81342404   178.62094198
 H     16  14   7     1.082375451240   121.06303512   181.99125264
 H     17  12   5     1.086560721577   115.51645264   303.37547070
 H     18  13   7     1.085616219126   115.93542988    56.61249904
 H      1   2   3     0.973311172618    38.08205956   123.86374311
 H      2   1   3     0.969916384004   132.55972202   335.76992124
 H     19  17  12     1.082333942121   121.72330880   180.30779579
 H     19  17  12     1.085526409998   121.41180942     1.90236898
 H     20  18  13     1.082585271519   121.39435820   179.60574811
 H     20  18  13     1.085099519794   121.57476973   359.70535577
 H     24  12   5     2.489956098548   127.99530860   343.81046081
 H     39  24  12     2.360179421043   128.65872705   345.85069300
 O     40  39  24     2.060759145091    89.17156530    99.05617011
 C     40  39  24     1.087453693392    67.60658859   135.43993834
 C     39  24  12     1.086817901575   136.12777048    83.45360500
 C     41  40  39     1.340616367002   119.01263873   335.58425990
 O     44  41  40     1.198602380309   124.25633892   216.00813288
 O     44  41  40     1.341218082613   111.65643625    36.91146744
 H     43  39  24     1.089034283301   110.38588948   106.78046767
 H     42  40  39     1.088087267449   110.31363605   125.33305674
 H     14   7   3     4.340175211837    90.69705180   278.63015994
 H     49  14   7     1.784702468019    21.76122394    80.99196358
 C     49  14   7     1.087763913361    51.43764467    47.29577383
 H     51  49  14     2.196898158923    87.37214655   156.62199161
 C     52  51  49     1.091150563483    39.95954059   196.71820417
 H     53  52  51     1.086066627212   110.05147182   128.35572020
 O     51  49  14     1.440141906584   108.40953793   262.30454084
 O     53  52  51     1.437771185398   108.20778567   246.79881919
 C     56  53  52     1.348261524970   110.10474819   106.18479473
 O     57  56  53     1.194284035018   124.22761541   183.29552907

---------------------------
INTERNAL COORDINATES (A.U.)
---------------------------
 O      0   0   0     0.000000000000     0.00000000     0.00000000
 O      1   0   0    12.057012596704     0.00000000     0.00000000
 C      1   2   0     4.614254527941    61.88250812     0.00000000
 C      3   1   2     2.796738302653    95.28109381     0.25425647
 C      2   1   3     4.588669941353    49.26749891   331.57185913
 C      5   2   1     2.624118392294   146.85953823    20.16368773
 C      3   1   2     4.628012320930   117.11435939   180.80244611
 C      7   3   1     2.624749970334    28.62302880   182.67454605
 C      1   2   3     2.573672872007    90.44095331   358.29035320
 C      4   3   1     2.639668191917   121.88126610   313.84208798
 C      2   1   3     2.599098900083    24.72693578   359.47318115
 C      5   2   1     2.856660102067    92.83247381   203.00310645
 C      7   3   1     2.862939754641   149.76006545   181.15443521
 C      7   3   1     2.632896417615    89.12462711     3.26736776
 C     10   4   3     2.618941077338   120.76381201   182.23314546
 C     14   7   3     2.618617698785   120.84197506   358.78654349
 C     12   5   2     2.840426963900   112.94696305   299.31880472
 C     13   7   3     2.833977311451   113.61093272    37.37568005
 C     17  12   5     2.513277008550   125.07289699   122.06766957
 C     18  13   7     2.507130744179   124.65224842   238.16205623
 H      6   5   2     2.040990898978   117.88964780   182.38469255
 H      8   7   3     2.045029106585   118.72747856   181.04483466
 H     10   4   3     2.043161134773   119.82155113     1.37822677
 H     12   5   2     2.070072454240   110.41442181    61.97042366
 H     12   5   2     2.064482179210   107.96169891   178.18136849
 H     13   7   3     2.069885805900   109.86700079   274.53032333
 H     13   7   3     2.069680632902   108.09245222   158.88300044
 H     14   7   3     2.048356537739   119.72458985   179.75847733
 H     15  10   4     2.045005238266   120.81342404   178.62094198
 H     16  14   7     2.045393176923   121.06303512   181.99125264
 H     17  12   5     2.053302191656   115.51645264   303.37547070
 H     18  13   7     2.051517340691   115.93542988    56.61249904
 H      1   2   3     1.839291559334    38.08205956   123.86374311
 H      2   1   3     1.832876338570   132.55972202   335.76992124
 H     19  17  12     2.045314736057   121.72330880   180.30779579
 H     19  17  12     2.051347626036   121.41180942     1.90236898
 H     20  18  13     2.045789679787   121.39435820   179.60574811
 H     20  18  13     2.050540920460   121.57476973   359.70535577
 H     24  12   5     4.705335111743   127.99530860   343.81046081
 H     39  24  12     4.460092732688   128.65872705   345.85069300
 O     40  39  24     3.894270412196    89.17156530    99.05617011
 C     40  39  24     2.054989663833    67.60658859   135.43993834
 C     39  24  12     2.053788191420   136.12777048    83.45360500
 C     41  40  39     2.533397784287   119.01263873   335.58425990
 O     44  41  40     2.265030242250   124.25633892   216.00813288
 O     44  41  40     2.534534862001   111.65643625    36.91146744
 H     43  39  24     2.057976545891   110.38588948   106.78046767
 H     42  40  39     2.056186945285   110.31363605   125.33305674
 H     14   7   3     8.201742523605    90.69705180   278.63015994
 H     49  14   7     3.372598895089    21.76122394    80.99196358
 C     49  14   7     2.055575894615    51.43764467    47.29577383
 H     51  49  14     4.151535864480    87.37214655   156.62199161
 C     52  51  49     2.061975735857    39.95954059   196.71820417
 H     53  52  51     2.052368488622   110.05147182   128.35572020
 O     51  49  14     2.721473797427   108.40953793   262.30454084
 O     53  52  51     2.716993783645   108.20778567   246.79881919
 C     56  53  52     2.547845039096   110.10474819   106.18479473
 O     57  56  53     2.256869752298   124.22761541   183.29552907

---------------------
BASIS SET INFORMATION
---------------------
There are 3 groups of distinct atoms

 Group   1 Type O   : 11s6p2d1f contracted to 5s3p2d1f pattern {62111/411/11/1}
 Group   2 Type C   : 11s6p2d1f contracted to 5s3p2d1f pattern {62111/411/11/1}
 Group   3 Type H   : 5s1p contracted to 3s1p pattern {311/1}

Atom   0O    basis set group =>   1
Atom   1O    basis set group =>   1
Atom   2C    basis set group =>   2
Atom   3C    basis set group =>   2
Atom   4C    basis set group =>   2
Atom   5C    basis set group =>   2
Atom   6C    basis set group =>   2
Atom   7C    basis set group =>   2
Atom   8C    basis set group =>   2
Atom   9C    basis set group =>   2
Atom  10C    basis set group =>   2
Atom  11C    basis set group =>   2
Atom  12C    basis set group =>   2
Atom  13C    basis set group =>   2
Atom  14C    basis set group =>   2
Atom  15C    basis set group =>   2
Atom  16C    basis set group =>   2
Atom  17C    basis set group =>   2
Atom  18C    basis set group =>   2
Atom  19C    basis set group =>   2
Atom  20H    basis set group =>   3
Atom  21H    basis set group =>   3
Atom  22H    basis set group =>   3
Atom  23H    basis set group =>   3
Atom  24H    basis set group =>   3
Atom  25H    basis set group =>   3
Atom  26H    basis set group =>   3
Atom  27H    basis set group =>   3
Atom  28H    basis set group =>   3
Atom  29H    basis set group =>   3
Atom  30H    basis set group =>   3
Atom  31H    basis set group =>   3
Atom  32H    basis set group =>   3
Atom  33H    basis set group =>   3
Atom  34H    basis set group =>   3
Atom  35H    basis set group =>   3
Atom  36H    basis set group =>   3
Atom  37H    basis set group =>   3
Atom  38H    basis set group =>   3
Atom  39H    basis set group =>   3
Atom  40O    basis set group =>   1
Atom  41C    basis set group =>   2
Atom  42C    basis set group =>   2
Atom  43C    basis set group =>   2
Atom  44O    basis set group =>   1
Atom  45O    basis set group =>   1
Atom  46H    basis set group =>   3
Atom  47H    basis set group =>   3
Atom  48H    basis set group =>   3
Atom  49H    basis set group =>   3
Atom  50C    basis set group =>   2
Atom  51H    basis set group =>   3
Atom  52C    basis set group =>   2
Atom  53H    basis set group =>   3
Atom  54O    basis set group =>   1
Atom  55O    basis set group =>   1
Atom  56C    basis set group =>   2
Atom  57O    basis set group =>   1
---------------------------------
AUXILIARY/J BASIS SET INFORMATION
---------------------------------
There are 3 groups of distinct atoms

 Group   1 Type O   : 12s5p4d2f1g contracted to 6s4p3d1f1g pattern {711111/2111/211/2/1}
 Group   2 Type C   : 12s5p4d2f1g contracted to 6s4p3d1f1g pattern {711111/2111/211/2/1}
 Group   3 Type H   : 5s2p1d contracted to 3s1p1d pattern {311/2/1}

Atom   0O    basis set group =>   1
Atom   1O    basis set group =>   1
Atom   2C    basis set group =>   2
Atom   3C    basis set group =>   2
Atom   4C    basis set group =>   2
Atom   5C    basis set group =>   2
Atom   6C    basis set group =>   2
Atom   7C    basis set group =>   2
Atom   8C    basis set group =>   2
Atom   9C    basis set group =>   2
Atom  10C    basis set group =>   2
Atom  11C    basis set group =>   2
Atom  12C    basis set group =>   2
Atom  13C    basis set group =>   2
Atom  14C    basis set group =>   2
Atom  15C    basis set group =>   2
Atom  16C    basis set group =>   2
Atom  17C    basis set group =>   2
Atom  18C    basis set group =>   2
Atom  19C    basis set group =>   2
Atom  20H    basis set group =>   3
Atom  21H    basis set group =>   3
Atom  22H    basis set group =>   3
Atom  23H    basis set group =>   3
Atom  24H    basis set group =>   3
Atom  25H    basis set group =>   3
Atom  26H    basis set group =>   3
Atom  27H    basis set group =>   3
Atom  28H    basis set group =>   3
Atom  29H    basis set group =>   3
Atom  30H    basis set group =>   3
Atom  31H    basis set group =>   3
Atom  32H    basis set group =>   3
Atom  33H    basis set group =>   3
Atom  34H    basis set group =>   3
Atom  35H    basis set group =>   3
Atom  36H    basis set group =>   3
Atom  37H    basis set group =>   3
Atom  38H    basis set group =>   3
Atom  39H    basis set group =>   3
Atom  40O    basis set group =>   1
Atom  41C    basis set group =>   2
Atom  42C    basis set group =>   2
Atom  43C    basis set group =>   2
Atom  44O    basis set group =>   1
Atom  45O    basis set group =>   1
Atom  46H    basis set group =>   3
Atom  47H    basis set group =>   3
Atom  48H    basis set group =>   3
Atom  49H    basis set group =>   3
Atom  50C    basis set group =>   2
Atom  51H    basis set group =>   3
Atom  52C    basis set group =>   2
Atom  53H    basis set group =>   3
Atom  54O    basis set group =>   1
Atom  55O    basis set group =>   1
Atom  56C    basis set group =>   2
Atom  57O    basis set group =>   1
--------------------------------------------------------------------------
WARNING: There was an error initializing an OpenFabrics device.

  Local host:   ga00
  Local device: mlx5_0
--------------------------------------------------------------------------


           ************************************************************
           *        Program running with 25 parallel MPI-processes    *
           *              working on a common directory               *
           ************************************************************
------------------------------------------------------------------------------
                             ORCA STARTUP CALCULATIONS
                           -- RI-GTO INTEGRALS CHOSEN --
------------------------------------------------------------------------------
------------------------------------------------------------------------------
                   ___                                                        
                  /   \      - P O W E R E D   B Y -                         
                 /     \                                                     
                 |  |  |   _    _      __       _____    __    __             
                 |  |  |  | |  | |    /  \     |  _  \  |  |  /  |          
                  \  \/   | |  | |   /    \    | | | |  |  | /  /          
                 / \  \   | |__| |  /  /\  \   | |_| |  |  |/  /          
                |  |  |   |  __  | /  /__\  \  |    /   |      \           
                |  |  |   | |  | | |   __   |  |    \   |  |\   \          
                \     /   | |  | | |  |  |  |  | |\  \  |  | \   \       
                 \___/    |_|  |_| |__|  |__|  |_| \__\ |__|  \__/        
                                                                              
                      - O R C A' S   B I G   F R I E N D -                    
                                      &                                       
                       - I N T E G R A L  F E E D E R -                       
                                                                              
 v1 FN, 2020, v2 2021, v3 2022-2024                                           
------------------------------------------------------------------------------


----------------------
SHARK INTEGRAL PACKAGE
----------------------

Number of atoms                             ...     58
Number of basis functions                   ...   1148
Number of shells                            ...    456
Maximum angular momentum                    ...      3
Integral batch strategy                     ... SHARK/LIBINT Hybrid
RI-J (if used) integral strategy            ... SPLIT-RIJ (Revised 2003 algorithm where possible)
Printlevel                                  ...      1
Contraction scheme used                     ... SEGMENTED contraction
Prescreening option                         ... SCHWARTZ
   Thresh                                   ... 2.500e-11
   Tcut                                     ... 2.500e-12
   Tpresel                                  ... 2.500e-12 
Coulomb Range Separation                    ... NOT USED
Exchange Range Separation                   ... NOT USED
Multipole approximations                    ... NOT USED
Finite Nucleus Model                        ... NOT USED
CABS basis                                  ... NOT available
Auxiliary Coulomb fitting basis             ... AVAILABLE
   # of basis functions in Aux-J            ...   1854
   # of shells in Aux-J                     ...    610
   Maximum angular momentum in Aux-J        ...      4
Auxiliary J/K fitting basis                 ... NOT available
Auxiliary Correlation fitting basis         ... NOT available
Auxiliary 'external' fitting basis          ... NOT available

Checking pre-screening integrals            ... done (  0.0 sec) Dimension = 456
Check shell pair data                       ... done (  0.0 sec)
Shell pair information
Shell pair cut-off parameter TPreSel        ...   2.5e-12
Total number of shell pairs                 ...    104196
Shell pairs after pre-screening             ...     67262
Total number of primitive shell pairs       ...    317988
Primitive shell pairs kept                  ...    130170
          la=0 lb=0:  17785 shell pairs
          la=1 lb=0:  19748 shell pairs
          la=1 lb=1:   5522 shell pairs
          la=2 lb=0:   9311 shell pairs
          la=2 lb=1:   5344 shell pairs
          la=2 lb=2:   1287 shell pairs
          la=3 lb=0:   4294 shell pairs
          la=3 lb=1:   2533 shell pairs
          la=3 lb=2:   1150 shell pairs
          la=3 lb=3:    288 shell pairs

Calculating one electron integrals          ... done (  0.1 sec)
Calculating RI/J V-Matrix + Cholesky decomp.... done (  0.2 sec)
Calculating Nuclear repulsion               ... done (  0.0 sec) ENN=   3478.032862897628 Eh

Diagonalization of the overlap matrix:
Smallest eigenvalue                        ... 4.146e-06
Time for diagonalization                   ...    0.222 sec
Threshold for overlap eigenvalues          ... 1.000e-07
Number of eigenvalues below threshold      ... 0
Time for construction of square roots      ...    0.100 sec
Total time needed                          ...    0.331 sec

-------------------
DFT GRID GENERATION
-------------------

General Integration Accuracy     IntAcc      ... 4.388
Radial Grid Type                 RadialGrid  ... OptM3 with GC (2021)
Angular Grid (max. ang.)         AngularGrid ... 4 (Lebedev-302)
Angular grid pruning method      GridPruning ... 4 (adaptive)
Weight generation scheme         WeightScheme... mBecke (2022)
Basis function cutoff            BFCut       ... 1.0000e-11
Integration weight cutoff        WCut        ... 1.0000e-14
Partially contracted basis set               ... off
Rotationally invariant grid construction     ... off
Angular grids for H and He will be reduced by one unit

Total number of grid points                  ...   272714
Total number of batches                      ...     4291
Average number of points per batch           ...       63
Average number of grid points per atom       ...     4702

--------------------
COSX GRID GENERATION
--------------------

GRIDX 1
-------
General Integration Accuracy     IntAcc      ... 3.816
Radial Grid Type                 RadialGrid  ... OptM3 with GC (2021)
Angular Grid (max. ang.)         AngularGrid ... 1 (Lebedev-50)
Angular grid pruning method      GridPruning ... 4 (adaptive)
Weight generation scheme         WeightScheme... mBecke (2022)
Basis function cutoff            BFCut       ... 1.0000e-11
Integration weight cutoff        WCut        ... 1.0000e-14
Partially contracted basis set               ... on
Rotationally invariant grid construction     ... off
Angular grids for H and He will be reduced by one unit

Total number of grid points                  ...    34519
Total number of batches                      ...      305
Average number of points per batch           ...      113
Average number of grid points per atom       ...      595
UseSFitting                                  ... on

GRIDX 2
-------
General Integration Accuracy     IntAcc      ... 4.020
Radial Grid Type                 RadialGrid  ... OptM3 with GC (2021)
Angular Grid (max. ang.)         AngularGrid ... 2 (Lebedev-110)
Angular grid pruning method      GridPruning ... 4 (adaptive)
Weight generation scheme         WeightScheme... mBecke (2022)
Basis function cutoff            BFCut       ... 1.0000e-11
Integration weight cutoff        WCut        ... 1.0000e-14
Partially contracted basis set               ... on
Rotationally invariant grid construction     ... off
Angular grids for H and He will be reduced by one unit

[...]
      px      :     0.867381
      py      :     0.843297
      dz2     :     0.281336  d :     1.090976
      dxz     :     0.246972
      dyz     :     0.181614
      dx2y2   :     0.190606
      dxy     :     0.190448
      f0      :     0.037277  f :     0.195954
      f+1     :     0.028534
      f-1     :     0.029196
      f+2     :     0.032245
      f-2     :     0.026724
      f+3     :     0.022105
      f-3     :     0.019872

 57 O s       :     3.397556  s :     3.397556
      pz      :     1.493917  p :     4.426199
      px      :     1.534902
      py      :     1.397380
      dz2     :     0.013385  d :     0.066179
      dxz     :     0.014472
      dyz     :     0.020106
      dx2y2   :     0.008390
      dxy     :     0.009825
      f0      :     0.000805  f :     0.006540
      f+1     :     0.000886
      f-1     :     0.001338
      f+2     :     0.001078
      f-2     :     0.001582
      f+3     :     0.000457
      f-3     :     0.000393



                      *****************************
                      * MAYER POPULATION ANALYSIS *
                      *****************************

  NA   - Mulliken gross atomic population
  ZA   - Total nuclear charge
  QA   - Mulliken gross atomic charge
  VA   - Mayer's total valence
  BVA  - Mayer's bonded valence
  FA   - Mayer's free valence

  ATOM       NA         ZA         QA         VA         BVA        FA
  0 O      8.4191     8.0000    -0.4191     2.0472     2.0472     0.0000
  1 O      8.4368     8.0000    -0.4368     2.0063     2.0063    -0.0000
  2 C      5.8977     6.0000     0.1023     3.3278     3.3278     0.0000
  3 C      5.9419     6.0000     0.0581     3.6388     3.6388     0.0000
  4 C      5.9907     6.0000     0.0093     3.6337     3.6337     0.0000
  5 C      6.1848     6.0000    -0.1848     3.9164     3.9164     0.0000
  6 C      5.8896     6.0000     0.1104     3.6898     3.6898     0.0000
  7 C      6.2624     6.0000    -0.2624     3.7932     3.7932     0.0000
  8 C      5.8072     6.0000     0.1928     3.9071     3.9071    -0.0000
  9 C      6.1889     6.0000    -0.1889     3.9063     3.9063    -0.0000
 10 C      5.7311     6.0000     0.2689     3.6916     3.6916     0.0000
 11 C      6.2693     6.0000    -0.2693     3.9375     3.9375     0.0000
 12 C      6.1640     6.0000    -0.1640     3.8981     3.8981     0.0000
 13 C      6.1547     6.0000    -0.1547     3.8530     3.8530    -0.0000
 14 C      6.2615     6.0000    -0.2615     3.9284     3.9284    -0.0000
 15 C      6.2557     6.0000    -0.2557     3.9953     3.9953    -0.0000
 16 C      6.1230     6.0000    -0.1230     3.7922     3.7922    -0.0000
 17 C      6.1056     6.0000    -0.1056     3.8448     3.8448     0.0000
 18 C      6.2835     6.0000    -0.2835     3.9057     3.9057    -0.0000
 19 C      6.2708     6.0000    -0.2708     3.9519     3.9519    -0.0000
 20 H      0.8132     1.0000     0.1868     0.9533     0.9533     0.0000
 21 H      0.8398     1.0000     0.1602     0.9636     0.9636     0.0000
 22 H      0.8780     1.0000     0.1220     0.9893     0.9893    -0.0000
 23 H      0.8919     1.0000     0.1081     0.9636     0.9636     0.0000
 24 H      0.8498     1.0000     0.1502     0.9866     0.9866     0.0000
 25 H      0.9114     1.0000     0.0886     0.9691     0.9691    -0.0000
 26 H      0.8971     1.0000     0.1029     0.9660     0.9660     0.0000
 27 H      0.9092     1.0000     0.0908     0.9761     0.9761    -0.0000
 28 H      0.8940     1.0000     0.1060     0.9898     0.9898    -0.0000
 29 H      0.9012     1.0000     0.0988     0.9962     0.9962     0.0000
 30 H      0.8800     1.0000     0.1200     0.9778     0.9778    -0.0000
 31 H      0.8664     1.0000     0.1336     0.9910     0.9910     0.0000
 32 H      0.6677     1.0000     0.3323     0.9427     0.9427    -0.0000
 33 H      0.6741     1.0000     0.3259     0.9286     0.9286    -0.0000
 34 H      0.8755     1.0000     0.1245     0.9762     0.9762    -0.0000
 35 H      0.8813     1.0000     0.1187     0.9746     0.9746     0.0000
 36 H      0.8873     1.0000     0.1127     0.9748     0.9748    -0.0000
 37 H      0.9041     1.0000     0.0959     0.9764     0.9764    -0.0000
 38 H      0.8900     1.0000     0.1100     0.9784     0.9784    -0.0000
 39 H      0.8667     1.0000     0.1333     0.9690     0.9690    -0.0000
 40 O      8.2508     8.0000    -0.2508     2.1564     2.1564     0.0000
 41 C      6.0244     6.0000    -0.0244     3.8637     3.8637    -0.0000
 42 C      6.0216     6.0000    -0.0216     3.8626     3.8626    -0.0000
 43 C      5.5073     6.0000     0.4927     4.3235     4.3235    -0.0000
 44 O      8.3860     8.0000    -0.3860     2.0913     2.0913    -0.0000
 45 O      8.2537     8.0000    -0.2537     2.1494     2.1494    -0.0000
 46 H      0.8791     1.0000     0.1209     0.9563     0.9563    -0.0000
 47 H      0.8781     1.0000     0.1219     0.9576     0.9576    -0.0000
 48 H      0.8911     1.0000     0.1089     0.9613     0.9613    -0.0000
 49 H      0.8599     1.0000     0.1401     0.9307     0.9307     0.0000
 50 C      6.0132     6.0000    -0.0132     3.8944     3.8944    -0.0000
 51 H      0.8969     1.0000     0.1031     0.9605     0.9605     0.0000
 52 C      6.0296     6.0000    -0.0296     3.8394     3.8394     0.0000
 53 H      0.8494     1.0000     0.1506     0.9720     0.9720     0.0000
 54 O      8.2680     8.0000    -0.2680     2.1262     2.1262    -0.0000
 55 O      8.2679     8.0000    -0.2679     2.1145     2.1145    -0.0000
 56 C      5.5912     6.0000     0.4088     4.4337     4.4337    -0.0000
 57 O      8.3150     8.0000    -0.3150     2.1858     2.1858    -0.0000

  Mayer bond orders larger than 0.100000
B(  0-O ,  8-C ) :   1.0930 B(  0-O , 32-H ) :   0.8331 B(  1-O , 10-C ) :   1.0213 
B(  1-O , 33-H ) :   0.8535 B(  2-C ,  3-C ) :   0.8478 B(  2-C ,  7-C ) :   1.2722 
B(  2-C ,  8-C ) :   1.2394 B(  3-C ,  5-C ) :   1.3693 B(  3-C ,  9-C ) :   1.3552 
B(  4-C ,  5-C ) :   1.3986 B(  4-C , 10-C ) :   1.2355 B(  4-C , 11-C ) :   0.8962 
B(  5-C , 20-H ) :   0.9072 B(  6-C ,  7-C ) :   1.3963 B(  6-C , 12-C ) :   0.9463 
B(  6-C , 13-C ) :   1.3155 B(  7-C , 21-H ) :   0.9562 B(  8-C , 15-C ) :   1.4275 
B(  9-C , 14-C ) :   1.4013 B(  9-C , 22-H ) :   0.9975 B( 10-C , 14-C ) :   1.3827 
B( 11-C , 16-C ) :   0.9589 B( 11-C , 23-H ) :   0.9714 B( 11-C , 24-H ) :   0.9751 
B( 12-C , 17-C ) :   0.9935 B( 12-C , 25-H ) :   0.9459 B( 12-C , 26-H ) :   0.9758 
B( 13-C , 15-C ) :   1.4183 B( 13-C , 27-H ) :   1.0011 B( 14-C , 28-H ) :   0.9999 
B( 15-C , 29-H ) :   1.0065 B( 16-C , 18-C ) :   1.8769 B( 16-C , 30-H ) :   0.9569 
B( 17-C , 19-C ) :   1.9379 B( 17-C , 31-H ) :   0.9375 B( 18-C , 34-H ) :   0.9686 
B( 18-C , 35-H ) :   0.9650 B( 19-C , 36-H ) :   0.9659 B( 19-C , 37-H ) :   0.9629 
B( 38-H , 42-C ) :   0.9519 B( 39-H , 41-C ) :   0.9522 B( 40-O , 41-C ) :   0.9141 
B( 40-O , 43-C ) :   1.1879 B( 41-C , 42-C ) :   0.9926 B( 41-C , 47-H ) :   0.9618 
B( 42-C , 45-O ) :   0.9159 B( 42-C , 46-H ) :   0.9618 B( 43-C , 44-O ) :   1.9050 
B( 43-C , 45-O ) :   1.1746 B( 48-H , 50-C ) :   0.9620 B( 49-H , 50-C ) :   0.9612 
B( 50-C , 52-C ) :   0.9854 B( 50-C , 54-O ) :   0.9165 B( 51-H , 52-C ) :   0.9667 
B( 52-C , 53-H ) :   0.9500 B( 52-C , 55-O ) :   0.9024 B( 54-O , 56-C ) :   1.1533 
B( 55-O , 56-C ) :   1.1590 B( 56-C , 57-O ) :   2.0605 

-------
TIMINGS
-------

Total SCF time: 0 days 0 hours 0 min 44 sec 

Total time                  ....      44.905 sec
Sum of individual times     ....      44.657 sec  ( 99.4%)

SCF preparation             ....       0.971 sec  (  2.2%)
Fock matrix formation       ....      40.192 sec  ( 89.5%)
  Startup                   ....       0.126 sec  (  0.3% of F)
  Split-RI-J                ....       3.561 sec  (  8.9% of F)
  Chain of spheres X        ....      32.983 sec  ( 82.1% of F)
  XC integration            ....       3.175 sec  (  7.9% of F)
    Basis function eval.    ....       0.749 sec  ( 23.6% of XC)
    Density eval.           ....       1.059 sec  ( 33.4% of XC)
    XC-Functional eval.     ....       0.041 sec  (  1.3% of XC)
    XC-Potential eval.      ....       0.903 sec  ( 28.4% of XC)
Diagonalization             ....       0.000 sec  (  0.0%)
Density matrix formation    ....       0.366 sec  (  0.8%)
Total Energy calculation    ....       0.180 sec  (  0.4%)
Population analysis         ....       0.274 sec  (  0.6%)
Orbital Transformation      ....       0.448 sec  (  1.0%)
Orbital Orthonormalization  ....       0.000 sec  (  0.0%)
DIIS solution               ....       0.507 sec  (  1.1%)
SOSCF solution              ....       1.718 sec  (  3.8%)
Finished LeanSCF after  45.1 sec

Maximum memory used throughout the entire LEANSCF-calculation: 222.5 MB


-------------------------------------------------------------------------------
                          DFT DISPERSION CORRECTION                            
                                                                               
                              DFTD3 V3.1  Rev 1                                
                          USING Becke-Johnson damping                          
-------------------------------------------------------------------------------
The B3LYP functional is recognized
Active option DFTDOPT                   ...         4   

molecular C6(AA) [au] = 35067.136835 


            DFT-D V3
 parameters
 s6 scaling factor         :     1.0000 
 a1 scaling factor         :     0.3981 
 s8 scaling factor         :     1.9889 
 a2 scaling factor         :     4.4211 
 ad hoc parameters k1-k3   :    16.0000     1.3333    -4.0000 

 Edisp/kcal,au: -84.252523890699  -0.134264928875 
 E6   /kcal   : -41.009234904 
 E8   /kcal   : -43.243288987 
 % E8         :  51.325808403 

-------------------------   ----------------
Dispersion correction           -0.134264929
-------------------------   ----------------


-------------------------   --------------------
FINAL SINGLE POINT ENERGY     -1531.858729137445
-------------------------   --------------------

                                *** OPTIMIZATION RUN DONE ***

--------------------------------------------------------------------------
WARNING: There was an error initializing an OpenFabrics device.

  Local host:   ga00
  Local device: mlx5_0
--------------------------------------------------------------------------


           ************************************************************
           *        Program running with 25 parallel MPI-processes    *
           *              working on a common directory               *
           ************************************************************

------------------------------------------------------------------------------
                              ORCA PROPERTY CALCULATIONS
------------------------------------------------------------------------------

GBWName                                 ... honokiol3_EC2.gbw
Number of atoms                         ...     58
Number of basis functions               ...   1148
Max core memory                         ...   5000 MB

Electric properties:
Dipole moment                           ... YES
Quadrupole moment                       ...  NO
Static polarizability (Dipole/Dipole)   ...  NO
Static polarizability (Dipole/Quad.)    ...  NO
Static polarizability (Quad./Quad.)     ...  NO
Static polarizability (Velocity)        ...  NO

Atomic electric properties:
Dipole moment                           ...  NO
Quadrupole moment                       ...  NO
Static polarizability                   ...  NO

Choice of electric origin               ... Center of mass
Position of electric origin             ...    -0.735886     1.271796     0.992798

General magnetic properties:
Magnetizability                         ...  NO

EPR properties:
g-Tensor (aka g-matrix)                 ...  NO
Zero-Field splitting spin-orbit         ...  NO
Zero-field splitting spin-spin          ...  NO
Hyperfine couplings                     ...  NO (   0 nuclei)
Quadrupole couplings                    ...  NO (   0 nuclei)
Contact density                         ...  NO (   0 nuclei)

NMR properties:
Chemical shifts                         ...  NO (   0 nuclei)
Spin-rotation constants                 ...  NO (   0 nuclei)
Spin-spin couplings                     ...  NO (   0 nuclei,    0 pairs)

Choice of magnetic origin               ... GIAO
Position of magnetic origin             ...     0.000000     0.000000     0.000000

Properties with geometric perturbations:
SCF Hessian                             ...  NO
IR spectrum                             ...  NO
VCD spectrum                            ...  NO
X-ray spectroscopy properties:
SCF XES/XAS/RIXS spectra                ...  NO


-------------
DIPOLE MOMENT
-------------

Method             : SCF
Type of density    : Electron Density
Multiplicity       :   1
Irrep              :   0
Energy             : -1531.7244642085704527 Eh
Relativity type    : 
Basis              : AO
                                X                 Y                 Z
Electronic contribution:      2.794316008       7.275969168      10.527073446
Nuclear contribution   :     -4.729189763      -6.829233389      -9.238349179
                        -----------------------------------------
Total Dipole Moment    :     -1.934873754       0.446735779       1.288724267
                        -----------------------------------------
Magnitude (a.u.)       :      2.367302164
Magnitude (Debye)      :      6.017203907



--------------------
Rotational spectrum 
--------------------
 
Rotational constants in cm-1:             0.006485             0.003615             0.003136 
Rotational constants in MHz :           194.410250           108.380592            94.003038 

Dipole components along the rotational axes: 
x,y,z [a.u.] :     2.194285     0.379175    -0.803405 
x,y,z [Debye]:     5.577429     0.963786    -2.042093 

 

Dipole moment calculation done in   0.1 sec 

Maximum memory used throughout the entire PROP-calculation: 127.1 MB
[ga00:421321] 24 more processes have sent help message help-mpi-btl-openib.txt / error in device init
[ga00:421321] Set MCA parameter "orte_base_help_aggregate" to 0 to see all help / error messages
--------------------------------------------------------------------------
WARNING: There was an error initializing an OpenFabrics device.

  Local host:   ga00
  Local device: mlx5_0
--------------------------------------------------------------------------
[ga00:421443] 24 more processes have sent help message help-mpi-btl-openib.txt / error in device init
[ga00:421443] Set MCA parameter "orte_base_help_aggregate" to 0 to see all help / error messages

--------------------------------
SUGGESTED CITATIONS FOR THIS RUN
--------------------------------

Below you find a list of papers that are relevant to this ORCA run
We neither can nor want to force you to cite these papers, but we appreciate if you do
You receive ORCA, which is the product of decades of hard work by many enthusiastic individuals, for free
The only thing we kindly ask in return is that you cite our papers,
We deeply appreciate it, if you show your appreciation for ORCA by not just citing the generic ORCA reference.

Please note that relegating all ORCA citations to the supporting information does *not* help us.
SI sections are not indexed - citations you put there will not count into any citation statistics
But we need these citations in order to attract the funding resources that allow us to do what we are doing

Therefore, if you are a happy ORCA user, please consider citing a few of the papers listed below in the main body of your paper

In addition to the list printed below, the program has created the file honokiol3_EC2.bibtex that contains the list in bibtex format
You can import this file easily into all common literature databanks and citation aid programs


List of essential papers. We consider these as the minimum necessary citations

  1. Neese,F.
     Software update: the ORCA program system, version 5.0
     WIRES Comput. Molec. Sci., 2022 12(1)e1606
     doi.org/10.1002/wcms.1606

List of papers to cite with high priority. The work reported in these papers was absolutely
necessary for this run to complete.
Our perspective: the developers of density functionals and basis sets usually get cited in chemistry papers
Good! But without the algorithms to do something with them, the functionals or basis sets would not do anything.
Hence, in our opinion, the algorithm design and method developments papers are equally worthy of getting cited

  1. Neese,F.
     An improvement of the resolution of the identity approximation for the formation of the Coulomb matrix
     J. Comp. Chem., 2003 24(14)1740-1747
     doi.org/10.1002/jcc.10318
  2. Neese,F.; Wennmohs,F.; Hansen,A.; Becker,U.
     Efficient, approximate and parallel Hartree-Fock and hybrid DFT calculations. A 'chain-of-spheres' algorithm for the Hartree-Fock exchange
     Chem. Phys., 2009 356(1-3)98-109
     doi.org/10.1016/j.chemphys.2008.10.036
  3. Helmich-Paris,B.; de Souza,B.; Neese,F.; Izsák,R.
     An improved chain of spheres for exchange algorithm
     J. Chem. Phys., 2021 155 104109
     doi.org/doi: 10.1063/5.0058766.
  4. Neese,F.
     The SHARK Integral Generation and Digestion System
     J. Comp. Chem., 2022  1-16
     doi.org/10.1002/jcc.26942
  5. Grimme,S.; Antony,J.; Ehrlich,S.; Krieg,H.
     A consistent and accurate ab initio parametrization of density functional dispersion correction (DFT-D) for the 94 elements H-Pu
     J. Chem. Phys., 2010 132 154104
     doi.org/10.1063/1.3382344
  6. Grimme,S.; Ehrlich,S.; Goerigk,L.
     Effect of the damping function in dispersion corrected density functional theory
     J. Comput. Chem., 2011 32(7)1456-1465
     doi.org/10.1002/jcc.21759

List of suggested additional citations. These are papers that are important in the 'surrounding' of 
of this run, or papers that preceded the highly important papers. If you like your results we are grateful for a citation.

  1. Izsak,R.; Neese,F.
     An overlap fitted chain of spheres exchange method
     J. Chem. Phys., 2011 135 144105
     doi.org/10.1063/1.3646921
  2. Izsak,R.; Hansen,A.; Neese,F.
     The resolution of identity and chain of spheres approximations for the LPNO-CCSD singles Fock term
     Molec. Phys., 2012 110 2413-2417
     doi.org/10.1080/00268976.2012.687466
  3. Neese,F.
     The ORCA program system
     WIRES Comput. Molec. Sci., 2012 2(1)73-78
     doi.org/10.1002/wcms.81
  4. Izsak,R.; Neese,F.; Klopper,W.
     Robust fitting techniques in the chain of spheres approximation to the Fock exchange: The role of the complementary space
     J. Chem. Phys., 2013 139 
     doi.org/10.1063/1.4819264
  5. Neese,F.
     Software update: the ORCA program system, version 4.0
     WIRES Comput. Molec. Sci., 2018 8(1)1-6
     doi.org/10.1002/wcms.1327
  6. Neese,F.; Wennmohs,F.; Becker,U.; Riplinger,C.
     The ORCA quantum chemistry program package
     J. Chem. Phys., 2020 152 Art. No. L224108
     doi.org/10.1063/5.0004608

List of optional additional citations

  1. Neese,F.
     Approximate second-order SCF convergence for spin unrestricted wavefunctions
     Chem. Phys. Lett., 2000 325(1-3)93-98
     doi.org/10.1016/s0009-2614(00)00662-x

Timings for individual modules:

Sum of individual times          ...      505.574 sec (=   8.426 min)
Startup calculation              ...       31.904 sec (=   0.532 min)   6.3 %
SCF iterations                   ...      351.243 sec (=   5.854 min)  69.5 %
Property calculations            ...        1.231 sec (=   0.021 min)   0.2 %
SCF Gradient evaluation          ...      120.873 sec (=   2.015 min)  23.9 %
Geometry relaxation              ...        0.323 sec (=   0.005 min)   0.1 %
                             ****ORCA TERMINATED NORMALLY****
TOTAL RUN TIME: 0 days 0 hours 8 minutes 30 seconds 989 msec
