
                                 *****************
                                 * O   R   C   A *
                                 *****************

                                            #,                                       
                                            ###                                      
                                            ####                                     
                                            #####                                    
                                            ######                                   
                                           ########,                                 
                                     ,,################,,,,,                         
                               ,,#################################,,                 
                          ,,##########################################,,             
                       ,#########################################, ''#####,          
                    ,#############################################,,   '####,        
                  ,##################################################,,,,####,       
                ,###########''''           ''''###############################       
              ,#####''   ,,,,##########,,,,          '''####'''          '####       
            ,##' ,,,,###########################,,,                        '##       
           ' ,,###''''                  '''############,,,                           
         ,,##''                                '''############,,,,        ,,,,,,###''
      ,#''                                            '''#######################'''  
     '                                                          ''''####''''         
             ,#######,   #######,   ,#######,      ##                                
            ,#'     '#,  ##    ##  ,#'     '#,    #''#        ,####,   ,####,        
            ##       ##  ##   ,#'  ##            #'  '#       #'       #'  '#        
            ##       ##  #######   ##           ,######,      #####,   #    #        
            '#,     ,#'  ##    ##  '#,     ,#' ,#      #,     #,   #   #,  ,#        
             '#######'   ##     ##  '#######'  #'      '#     '####' # '####'        



                #########################################################
                #                        -***-                          #
                #          Department of theory and spectroscopy        #
                #                                                       #
                #                      Frank Neese                      #
                #                                                       #
                #     Directorship, Architecture, Infrastructure        #
                #                    SHARK, DRIVERS                     #
                #        Core code/Algorithms in most modules           #
                #                                                       #
                #        Max Planck Institute fuer Kohlenforschung      #
                #                Kaiser Wilhelm Platz 1                 #
                #                 D-45470 Muelheim/Ruhr                 #
                #                      Germany                          #
                #                                                       #
                #                  All rights reserved                  #
                #                        -***-                          #
                #########################################################


                         Program Version 6.0.1  -  RELEASE   -


 With contributions from (in alphabetic order):
[Max-Planck-Institut fuer Kohlenforschung]                               
  Daniel Aravena         : Magnetic Suceptibility                        
  Michael Atanasov       : Ab Initio Ligand Field Theory (pilot matlab implementation)
  Alexander A. Auer      : GIAO ZORA, VPT2 properties, NMR spectrum      
  Ute Becker             : All parallelization in ORCA, NUMFREQ, NUMCALC 
  Giovanni Bistoni       : ED, misc. LED, open-shell LED, HFLD           
  Martin Brehm           : Molecular dynamics                            
  Dmytro Bykov           : pre 5.0 version of the SCF Hessian            
  Marcos Casanova-Páez   : Triplet and SCS-CIS(D). UHF-(DLPNO)-IP/EA/STEOM-CCSD. UHF-CVS-IP/STEOM-CCSD   
  Vijay G. Chilkuri      : MRCI spin determinant printing, contributions to CSF-ICE 
  Pauline Colinet        : FMM embedding                                 
  Dipayan Datta          : RHF DLPNO-CCSD density                        
  Achintya Kumar Dutta   : EOM-CC, STEOM-CC                              
  Nicolas Foglia         : Exact transition moments, OPA infrastructure, MCD improvements    
  Dmitry Ganyushin       : Spin-Orbit,Spin-Spin,Magnetic field MRCI      
  Miquel Garcia-Rates    : C-PCM and meta-GGA Hessian, CCSD/C-PCM, Gaussian charge scheme 
  Tiago L. C. Gouveia    : GS-ROHF, GS-ROCIS                             
  Yang Guo               : DLPNO-NEVPT2, F12-NEVPT2, CIM, IAO-localization        
  Andreas Hansen         : Spin unrestricted coupled pair/coupled cluster methods 
  Ingolf Harden          : AUTO-CI MPn and infrastructure                
  Benjamin Helmich-Paris : MC-RPA, TRAH-(SCF,CASSCF), AVAS, COSX integrals, SCF dyn. polar. 
  Lee Huntington         : MR-EOM, pCC                                   
  Robert Izsak           : Overlap fitted RIJCOSX, COSX-SCS-MP3, EOM     
  Riya Kayal             : Wick's Theorem for AUTO-CI, AUTO-CI UHF-CCSDT 
  Emily Kempfer          : AUTO-CI, RHF CISDT and CCSDT                  
  Christian Kollmar      : KDIIS, OOCD, Brueckner-CCSD(T), CCSD density, CASPT2, CASPT2-K, improved NEVPT2 
  Axel Koslowski         : Symmetry handling                             
  Simone Kossmann        : meta-GGA functionals, TD-DFT gradient, OOMP2, (MP2 Hessian; deprecated post 5.0) 
  Lucas Lang             : DCDCAS                                        
  Marvin Lechner         : AUTO-CI (C++ implementation), FIC-MRCC        
  Spencer Leger          : CASSCF response                               
  Dagmar Lenk            : GEPOL surface, SMD, ORCA-2-JSON               
  Dimitrios Liakos       : Extrapolation schemes; Compound Job, initial MDCI parallelization 
  Dimitrios Manganas     : Further ROCIS development; embedding schemes. LFT, Crystal Embedding 
  Dimitrios Pantazis     : SARC Basis sets                               
  Anastasios Papadopoulos: AUTO-CI, single reference methods and gradients 
  Taras Petrenko         : pre 6.0 DFT Hessian and TD-DFT gradient, (ASA, deprecated), ECA, 1-Electron XAS/XES, NRVS 
  Peter Pinski           : DLPNO-MP2, DLPNO-MP2 Gradient                 
  Christoph Reimann      : Effective Core Potentials                     
  Marius Retegan         : Local ZFS, SOC                                
  Christoph Riplinger    : Optimizer, TS searches, QM/MM, DLPNO-CCSD(T), (RO)-DLPNO pert. Triples 
  Michael Roemelt        : Original ROCIS implementation                 
  Masaaki Saitow         : Open-shell DLPNO-CCSD energy and density      
  Barbara Sandhoefer     : DKH picture change effects                    
  Kantharuban Sivalingam : CASSCF convergence/infrastructure, NEVPT2 and variants, FIC-MRCI 
  Bernardo de Souza      : ESD, SOC TD-DFT                               
  Georgi L. Stoychev     : AutoAux, RI-MP2 NMR, DLPNO-MP2 response, X2C  
  Van Anh Tran           : RI-MP2 g-tensors                              
  Willem Van den Heuvel  : Paramagnetic NMR                              
  Zikuan Wang            : NOTCH, Electric field optimization            
  Frank Wennmohs         : Technical directorship and infrastructure     
  Hang Xu                : AUTO-CI-Response properties                   
                                                                         
[FACCTs GmbH]                                                            
  Markus Bursch, Miquel Garcia-Rates, Christoph Riplinger, Bernardo de Souza, Georgi L. Stoychev 
                                                                 
  APM, Basis sets (HGBS, AHGBS, def-TZVP (Ac-Lr), def2-XVPD (La-Lu)), CI-OPT, improved COSX, DLPNO-Multilevel,           
  DOCKER, DRACO, updates on ESD, GOAT, IRC, LR-CPCM, MBIS, meta-GGA TD-DFT gradient, ML-optimized integration grids, 
  MM, NACMEs, nearIR, NEB, NEB-TS, NL-DFT gradient (VV10), 2- and 3-layer-ONIOM, interface openCOSMO-RS, QMMM,   
  Crystal-QMMM, SF, symmetry and pop. for TD-DFT, r2SCAN hybrids, SOLVATOR                                   
                                                                         
[Other institutions]                                                     
  V. Asgeirsson          : NEB                                           
  Christoph Bannwarth    : sTDA-DFT, sTD-DFT, PBEh-3c, B97-3c, D3        
  Sebastian Ehlert       : rSCAN, r2SCAN, r2SCAN-3c, D4, dhf basis sets  
  Marvin Friede          : D4 for Fr, Ra, Ac-Lr                          
  Lars Goerigk           : TD-DFT with DH, B97 family of functionals     
  Stefan Grimme          : VdW corrections, initial TS optimization, DFT functionals, gCP, sTDA/sTD-DF 
  Waldemar Hujo          : DFT-NL                                        
  H. Jonsson             : NEB                                           
  Holger Kruse           : gCP                                           
  Marcel Mueller         : wB97X-3c, vDZP basis set                      
  Hagen Neugebauer       : wr2SCAN                                       
  Tobias Risthaus        : range-separated hybrid DFT                    
  Lukas Wittmann         : regularized MP2, r2SCAN double-hybrids, wr2SCAN        
                                                                         
We gratefully acknowledge several colleagues who have allowed us to      
interface, adapt or use parts of their codes:                            
  Ed Valeev, F. Pavosevic, A. Kumar             : LibInt (2-el integral package), F12 methods 
  Garnet Chan, S. Sharma, J. Yang, R. Olivares  : DMRG                   
  Ulf Ekstrom                                   : XCFun DFT Library      
  Mihaly Kallay                                 : mrcc  (arbitrary order and MRCC methods)
  Frank Weinhold                                : gennbo (NPA and NBO analysis)           
  Simon Mueller                                 : openCOSMO-RS                            
  Christopher J. Cramer and Donald G. Truhlar   : smd solvation model                     
  S Lehtola, MJT Oliveira, MAL Marques          : LibXC Library                           
  Liviu Ungur et al                             : ANISO software                          


 Your calculation uses the libint2 library for the computation of 2-el integrals
 For citations please refer to: http://libint.valeyev.net

 Your ORCA version has been built with support for libXC version: 6.2.2
 For citations please refer to: https://libxc.gitlab.io

 This ORCA versions uses:
   CBLAS   interface :  Fast vector & matrix operations
   LAPACKE interface :  Fast linear algebra routines
   SCALAPACK package :  Parallel linear algebra routines
   Shared memory     :  Shared parallel matrices
   BLAS/LAPACK       :  OpenBLAS 0.3.27  USE64BITINT DYNAMIC_ARCH NO_AFFINITY SkylakeX SINGLE_THREADED
        Core in use  :  SkylakeX
   Copyright (c) 2011-2014, The OpenBLAS Project


NOTE: MaxCore=5000 MB was set to SCF,MP2,MDCI,CIPSI,MRCI and CIS
      => If you want to overwrite this, your respective input block should be placed after the MaxCore statement
Your calculation utilizes the atom-pairwise dispersion correction
with the Becke-Johnson damping scheme (D3BJ)


Warning: RI is on but no J-basis has been assigned. Assigning Def2/J (nothing to worry about!)
================================================================================

----- Orbital basis set information -----
Your calculation utilizes the basis: def2-TZVP
   F. Weigend and R. Ahlrichs, Phys. Chem. Chem. Phys. 7, 3297 (2005).

----- AuxJ basis set information -----
Your calculation utilizes the auxiliary basis: def2/J
   F. Weigend, Phys. Chem. Chem. Phys. 8, 1057 (2006).

================================================================================
                                        WARNINGS
                       Please study these warnings very carefully!
================================================================================


WARNING: Geometry Optimization
  ===> : Switching off AutoStart
         For restart on a previous wavefunction, please use MOREAD

================================================================================
                                       INPUT FILE
================================================================================
NAME = honokiol3_FEC2.inp
|  1> ! OPT B3LYP def2-TZVP TightSCF D3BJ RIJCOSX
|  2> 
|  3> %maxcore 5000
|  4> 
|  5> %pal
|  6> nprocs 30
|  7> end
|  8> 
|  9> * xyz 0 1
| 10> O           1.64597770396610      1.69240927924484      2.13535735007796
| 11>   O          -3.62193685087454     -1.78047691037499      1.90011707286364
| 12>   C           1.49954925149539      0.05838953125313      0.32888283613718
| 13>   C           0.14966521474648     -0.42159901828654      0.73573058283083
| 14>   C          -2.23781698553069     -0.64876484478889      0.25201988701980
| 15>   C          -0.95929765630509     -0.21455009735126     -0.08860890962928
| 16>   C           3.39146429261473     -0.07410808578846     -1.22072046818941
| 17>   C           2.12498332512386     -0.47542354710958     -0.79984428671815
| 18>   C           2.17460647092117      1.05744350689471      1.05112878370793
| 19>   C          -0.04554216771911     -1.10858815062068      1.93656026864433
| 20>   C          -2.39609885432442     -1.34299017023440      1.46005827800132
| 21>   C          -3.42247736268874     -0.32926274461595     -0.63767922277681
| 22>   C           4.04191449261355     -0.69968831133647     -2.44081612435005
| 23>   C           4.04183136740878      0.90582093085982     -0.47265159834653
| 24>   C          -1.30419178577917     -1.57599939216429      2.28944705432236
| 25>   C           3.44370492933966      1.46734364488995      0.64649310227786
| 26>   C          -4.16473723878264     -1.54655981479933     -1.12384529075720
| 27>   C           3.20710724325399     -0.60071613189867     -3.68743133613851
| 28>   C          -5.46815592591173     -1.76330042325348     -0.96684950985392
| 29>   C           2.81606594671240     -1.63071921768433     -4.42820400053678
| 30>   H          -0.83152845074613      0.32770226863440     -1.01772604026471
| 31>   H           1.59903556785854     -1.23880489480146     -1.36194481821478
| 32>   H           0.79710561579933     -1.30105314804859      2.58950304919278
| 33>   H          -4.11784169185410      0.33306203748805     -0.11055582483067
| 34>   H          -3.05529415039787      0.23557228929748     -1.49845139518418
| 35>   H           4.27262288528263     -1.75226569351507     -2.24654466238272
| 36>   H           5.00073249722727     -0.19923447485517     -2.61295556239769
| 37>   H           5.03100866887601      1.23834483298821     -0.76682257727106
| 38>   H          -1.44911392880947     -2.14373083277815      3.19999189960040
| 39>   H           3.94716974056148      2.23477586386116      1.22209339784317
| 40>   H          -3.56190772229095     -2.29239327381786     -1.63604299726958
| 41>   H           2.91055987251162      0.40455873687132     -3.97667366827387
| 42>   H           0.73521009618367      1.41260714914092      2.31856244013242
| 43>   H          -4.22219056417927     -1.88359624075333      1.14500124850343
| 44>   H          -5.94468399025467     -2.65746208742879     -1.34852921646436
| 45>   H          -6.11026445792024     -1.03939749367171     -0.47468813788787
| 46>   H           2.21801866028597     -1.49340767430350     -5.32048257553726
| 47>   H           3.08363965637333     -2.65023832661775     -4.17081648556551
| 48>   H          -4.78114647872185      0.37414893718953      3.30630082169270
| 49>   H          -3.30015587601419     -0.76721756797346      4.85087776572450
| 50>   O          -2.04686270767242      0.87380120402889      4.87898560320950
| 51>   C          -3.35787767845253      0.30792328728310      5.01454004585850
| 52>   C          -4.16768277620564      1.01729483983639      3.93187164765561
| 53>   C          -1.97767136842480      1.59922019640162      3.74995118214963
| 54>   O          -0.99764579812248      2.12386441167736      3.32535844287323
| 55>   O          -3.19702878424416      1.64714399024578      3.14006106009508
| 56>   F          -4.98433338555521      1.97835407809284      4.48514914102400
| 57>   H          -3.74369241395548      0.52722408707148      6.00785691802492
| 58>   H           1.37740148093744      5.59733152621149     -0.55117497353820
| 59>   H           1.94307632802016      3.92559236344848     -0.21382281930874
| 60>   C           1.08672728800618      4.55353982936593     -0.46027382418156
| 61>   F          -0.72272850325052      5.54275133792920      0.74954687447675
| 62>   C          -0.05170015623581      4.35668077262934      0.53478024676208
| 63>   H           0.23411843600406      3.94715352009525      1.49967981164849
| 64>   O           0.52253913814009      4.10543978039905     -1.70219971919275
| 65>   O          -0.91157161186374      3.46572012526775     -0.12449655045887
| 66>   C          -0.60439123187681      3.40827796676126     -1.45679308409017
| 67>   O          -1.23955242619942      2.80948416171342     -2.26302774713921
| 68> *
| 69> 
| 70>                          ****END OF INPUT****
================================================================================

                       *****************************
                       * Geometry Optimization Run *
                       *****************************

Geometry optimization settings:
Update method            Update   .... BFGS
Choice of coordinates    CoordSys .... (2022) Redundant Internals
Initial Hessian          InHess   .... Almloef's Model
Max. no of cycles        MaxIter  .... 174

Convergence Tolerances:
Energy Change            TolE     ....  5.0000e-06 Eh
Max. Gradient            TolMAXG  ....  3.0000e-04 Eh/bohr
RMS Gradient             TolRMSG  ....  1.0000e-04 Eh/bohr
Max. Displacement        TolMAXD  ....  4.0000e-03 bohr
RMS Displacement         TolRMSD  ....  2.0000e-03 bohr
Strict Convergence                .... False

------------------------------------------------------------------------------
                        ORCA OPTIMIZATION COORDINATE SETUP
------------------------------------------------------------------------------

The optimization will be done in redundant internal coordinates (2022)
Making redundant internal coordinates   ...  (2022 redundants) done
Evaluating the initial hessian          ...  (Almloef) done
Evaluating the coordinates              ...  done
Calculating the B-matrix                .... done
Calculating the G-matrix                .... done
Diagonalizing the G-matrix              .... done
Small eigenvalue found = 4.433e-03
Small eigenvalue found = 4.981e-03
Small eigenvalue found = 1.105e-02
Small eigenvalue found = 1.632e-02
Small eigenvalue found = 2.285e-02
Small eigenvalue found = 2.827e-02
The first mode is                       ....  317
The number of degrees of freedom        ....  168

    -----------------------------------------------------------------
                    Redundant Internal Coordinates


    -----------------------------------------------------------------
         Definition                    Initial Value    Approx d2E/dq
    -----------------------------------------------------------------
      1. B(C   3,C   2)                  1.4893         0.433776   
      2. B(C   5,C   4)                  1.3925         0.618982   
      3. B(C   5,C   3)                  1.3972         0.608459   
      4. B(C   7,C   6)                  1.3936         0.616552   
      5. B(C   7,C   2)                  1.3965         0.610105   
      6. B(C   8,C   2)                  1.4055         0.590198   
      7. B(C   8,O   0)                  1.3632         0.617605   
      8. B(C   9,C   3)                  1.3972         0.608580   
      9. B(C  10,C   4)                  1.4023         0.597261   
     10. B(C  10,O   1)                  1.3739         0.593595   
     11. B(C  11,C   4)                  1.5156         0.393858   
     12. B(C  12,C   6)                  1.5176         0.391005   
     13. B(C  13,C   6)                  1.3939         0.616000   
     14. B(C  14,C  10)                  1.3908         0.622868   
     15. B(C  14,C   9)                  1.3882         0.628857   
     16. B(C  15,C   8)                  1.3937         0.616394   
     17. B(C  15,C  13)                  1.3876         0.630234   
     18. B(C  16,C  11)                  1.5064         0.407469   
     19. B(C  17,C  12)                  1.5036         0.411653   
     20. B(C  18,C  16)                  1.3306         0.777125   
     21. B(C  19,C  17)                  1.3276         0.785721   
     22. B(H  20,C   5)                  1.0833         0.369022   
     23. B(H  21,C   7)                  1.0841         0.367955   
     24. B(H  22,C   9)                  1.0833         0.369140   
     25. B(H  23,C  11)                  1.0955         0.352930   
     26. B(H  24,C  11)                  1.0931         0.356068   
     27. B(H  25,C  12)                  1.0949         0.353628   
     28. B(H  26,C  12)                  1.0952         0.353313   
     29. B(H  27,C  13)                  1.0842         0.367798   
     30. B(H  28,C  14)                  1.0828         0.369778   
     31. B(H  29,C  15)                  1.0834         0.368944   
     32. B(H  30,C  16)                  1.0872         0.363815   
     33. B(H  31,C  17)                  1.0873         0.363715   
     34. B(H  32,O   0)                  0.9702         0.500774   
     35. B(H  33,O   1)                  0.9701         0.500976   
     36. B(H  34,C  18)                  1.0827         0.369860   
     37. B(H  35,C  18)                  1.0856         0.365947   
     38. B(H  36,C  19)                  1.0829         0.369614   
     39. B(H  37,C  19)                  1.0850         0.366752   
     40. B(H  38,O   1)                  2.8220         0.000556   
     41. B(C  41,O  40)                  1.4343         0.475468   
     42. B(C  41,H  39)                  1.0891         0.361350   
     43. B(C  42,C  41)                  1.5268         0.377972   
     44. B(C  42,H  38)                  1.0869         0.364248   
     45. B(C  43,O  40)                  1.3438         0.663163   
     46. B(O  44,H  32)                  2.1266         0.007158   
     47. B(O  44,C  43)                  1.1899         1.166924   
     48. B(O  45,C  43)                  1.3642         0.615186   
     49. B(O  45,C  42)                  1.4021         0.535296   
     50. B(F  46,C  42)                  1.3772         0.544998   
     51. B(H  47,C  41)                  1.0879         0.362829   
     52. B(H  49,O   0)                  3.2548         0.000113   
     53. B(H  49,C   8)                  3.1432         0.000191   
     54. B(H  49,C  15)                  3.0058         0.000316   
     55. B(H  49,H  29)                  2.9895         0.000064   
     56. B(C  50,H  49)                  1.0901         0.359924   
     57. B(C  50,H  48)                  1.0873         0.363668   
     58. B(C  52,F  51)                  1.3796         0.540299   
     59. B(C  52,C  50)                  1.5248         0.380831   
     60. B(H  53,O   0)                  2.7352         0.000765   
     61. B(H  53,H  32)                  2.7103         0.000179   
     62. B(H  53,C  52)                  1.0865         0.364788   
     63. B(H  53,F  51)                  2.0060         0.010356   
     64. B(H  53,C   8)                  3.5096         0.000050   
     65. B(H  53,O  44)                  2.8591         0.000485   
     66. B(O  54,C  50)                  1.4358         0.472962   
     67. B(O  54,H  49)                  2.0653         0.008964   
     68. B(O  55,C  52)                  1.4028         0.533901   
     69. B(O  55,H  53)                  2.0451         0.009656   
     70. B(O  55,H  20)                  3.2637         0.000110   
     71. B(C  56,O  55)                  1.3685         0.605685   
     72. B(C  56,O  54)                  1.3477         0.653733   
     73. B(C  56,H  20)                  3.1200         0.000208   
     74. B(O  57,H  20)                  2.8065         0.000589   
     75. B(O  57,C  56)                  1.1883         1.174125   
     76. B(O  57,H  24)                  3.2414         0.000119   
     77. A(H  49,O   0,H  53)           46.6689         0.096895   
     78. A(H  32,O   0,H  49)          114.8241         0.123250   
     79. A(C   8,O   0,H  53)          113.5349         0.153190   
     80. A(C   8,O   0,H  49)           73.1498         0.130670   
     81. A(H  32,O   0,H  53)           78.2916         0.141761   
     82. A(C   8,O   0,H  32)          112.3267         0.367490   
     83. A(C  10,O   1,H  33)          109.6689         0.365027   
     84. A(C   3,C   2,C   7)          120.2342         0.406110   
     85. A(C   3,C   2,C   8)          121.6032         0.403738   
     86. A(C   7,C   2,C   8)          118.1609         0.429000   
     87. A(C   2,C   3,C   5)          120.6941         0.405916   
     88. A(C   2,C   3,C   9)          121.3251         0.405930   
     89. A(C   5,C   3,C   9)          117.9729         0.431159   
     90. A(C  10,C   4,C  11)          121.4566         0.397766   
     91. A(C   5,C   4,C  10)          117.9520         0.431033   
     92. A(C   5,C   4,C  11)          120.5515         0.400272   
     93. A(C   3,C   5,H  20)          119.1150         0.353249   
     94. A(C   3,C   5,C   4)          122.5600         0.432474   
     95. A(C   4,C   5,H  20)          118.3037         0.354276   
     96. A(C   7,C   6,C  13)          117.6712         0.433126   
     97. A(C   7,C   6,C  12)          120.9042         0.399484   
     98. A(C  12,C   6,C  13)          121.4195         0.399421   
     99. A(C   6,C   7,H  21)          119.1479         0.353867   
    100. A(C   2,C   7,C   6)          122.7538         0.432378   
    101. A(C   2,C   7,H  21)          118.0967         0.353237   
    102. A(O   0,C   8,H  49)           82.3273         0.136429   
    103. A(O   0,C   8,H  53)           45.6042         0.123975   
    104. A(C  15,C   8,H  53)          107.3631         0.124250   
    105. A(C   2,C   8,C  15)          119.8165         0.429790   
    106. A(O   0,C   8,C  15)          116.5552         0.430476   
    107. A(C   2,C   8,H  49)          113.9806         0.136334   
    108. A(O   0,C   8,C   2)          123.6121         0.427136   
    109. A(C   2,C   8,H  53)          112.6676         0.123905   
    110. A(H  49,C   8,H  53)           42.2166         0.093896   
    111. A(C  15,C   8,H  49)           71.4497         0.136801   
    112. A(C   3,C   9,C  14)          120.7110         0.433722   
    113. A(C   3,C   9,H  22)          119.7846         0.353280   
    114. A(C  14,C   9,H  22)          119.4874         0.355247   
    115. A(O   1,C  10,C  14)          117.1358         0.428226   
    116. A(O   1,C  10,C   4)          122.2946         0.425018   
    117. A(C   4,C  10,C  14)          120.5340         0.431518   
    118. A(C   4,C  11,H  23)          109.9465         0.326070   
    119. A(C   4,C  11,H  24)          107.9771         0.326546   
    120. A(H  23,C  11,H  24)          106.2441         0.289411   
    121. A(C   4,C  11,C  16)          113.8446         0.372166   
    122. A(C  16,C  11,H  24)          109.2053         0.328379   
    123. A(C  16,C  11,H  23)          109.3356         0.327900   
    124. A(C   6,C  12,C  17)          113.6700         0.372355   
    125. A(H  25,C  12,H  26)          106.4214         0.289149   
    126. A(C  17,C  12,H  26)          109.0072         0.328512   
    127. A(C   6,C  12,H  26)          108.2547         0.325738   
    128. A(C  17,C  12,H  25)          109.1091         0.328560   
    129. A(C   6,C  12,H  25)          110.1169         0.325786   
    130. A(C   6,C  13,C  15)          121.0786         0.434840   
    131. A(C  15,C  13,H  27)          119.2065         0.355160   
    132. A(C   6,C  13,H  27)          119.7149         0.353787   
    133. A(C  10,C  14,H  28)          118.9621         0.354775   
    134. A(C   9,C  14,H  28)          120.7738         0.355352   
    135. A(C   9,C  14,C  10)          120.2514         0.435537   
    136. A(C  13,C  15,H  49)          108.3788         0.142857   
    137. A(C  13,C  15,H  29)          120.9860         0.355347   
    138. A(C   8,C  15,H  29)          118.5061         0.354012   
    139. A(C   8,C  15,C  13)          120.5073         0.434890   
    140. A(H  29,C  15,H  49)           78.7408         0.130264   
    141. A(C   8,C  15,H  49)           82.4738         0.142587   
    142. A(C  11,C  16,C  18)          125.1860         0.419252   
    143. A(C  18,C  16,H  30)          119.1428         0.367398   
    144. A(C  11,C  16,H  30)          115.6707         0.329548   
    145. A(C  12,C  17,C  19)          125.1053         0.420841   
    146. A(C  19,C  17,H  31)          119.2450         0.368075   
    147. A(C  12,C  17,H  31)          115.6486         0.330090   
    148. A(H  34,C  18,H  35)          116.7553         0.292806   
    149. A(C  16,C  18,H  35)          121.6182         0.367767   
    150. A(C  16,C  18,H  34)          121.6046         0.368439   
    151. A(H  36,C  19,H  37)          116.7950         0.292877   
    152. A(C  17,C  19,H  37)          121.6007         0.368601   
    153. A(C  17,C  19,H  36)          121.6039         0.369093   
    154. A(C  56,H  20,O  57)           22.3341         0.097634   
    155. A(C   5,H  20,C  56)          128.5719         0.126529   
    156. A(C   5,H  20,O  57)          143.7098         0.135951   
    157. A(O  55,H  20,O  57)           42.9139         0.096386   
    158. A(C   5,H  20,O  55)          104.1020         0.121105   
    159. A(O  55,H  20,C  56)           24.6244         0.094904   
    160. A(C  11,H  24,O  57)          141.6526         0.121441   
    161. A(C  15,H  29,H  49)           80.4397         0.112006   
    162. A(O  44,H  32,H  53)           71.3136         0.100750   
    163. A(O   0,H  32,H  53)           81.1884         0.119734   
    164. A(O   0,H  32,O  44)          139.2758         0.176517   
    165. A(C  41,O  40,C  43)          109.8429         0.413527   
    166. A(H  39,C  41,O  40)          109.0766         0.335670   
    167. A(C  42,C  41,H  47)          111.4496         0.325346   
    168. A(O  40,C  41,H  47)          109.3232         0.335898   
    169. A(H  39,C  41,H  47)          110.7935         0.291343   
    170. A(O  40,C  41,C  42)          103.5605         0.377122   
    171. A(H  39,C  41,C  42)          112.3473         0.325128   
    172. A(H  38,C  42,O  45)          109.3614         0.342835   
    173. A(O  45,C  42,F  46)          108.8996         0.406088   
    174. A(C  41,C  42,F  46)          110.7233         0.384502   
    175. A(H  38,C  42,F  46)          108.0273         0.342446   
    176. A(C  41,C  42,O  45)          104.0038         0.384956   
    177. A(H  38,C  42,C  41)          115.6310         0.325555   
    178. A(O  44,C  43,O  45)          124.1336         0.479952   
    179. A(O  40,C  43,O  45)          110.3993         0.433013   
    180. A(O  40,C  43,O  44)          125.4655         0.486653   
    181. A(H  32,O  44,H  53)           63.8914         0.107197   
    182. A(C  43,O  44,H  53)          149.7477         0.155873   
    183. A(H  32,O  44,C  43)          133.8341         0.211968   
    184. A(C  42,O  45,C  43)          110.5196         0.416732   
    185. A(C  15,H  49,H  29)           20.8195         0.093652   
    186. A(C  15,H  49,C  50)          158.1210         0.130033   
    187. A(H  29,H  49,C  50)          163.9443         0.111878   
    188. A(O   0,H  49,C   8)           24.5229         0.094833   
    189. A(O   0,H  49,C  15)           43.7698         0.095539   
    190. A(O   0,H  49,H  29)           47.6597         0.092646   
    191. A(O   0,H  49,C  50)          119.1229         0.121158   
    192. A(C   8,H  49,C  15)           26.0765         0.096443   
    193. A(C   8,H  49,H  29)           40.6448         0.093150   
    194. A(C   8,H  49,C  50)          132.4121         0.125603   
    195. A(C  52,C  50,O  54)          103.3444         0.377269   
    196. A(H  49,C  50,O  54)          108.9324         0.335155   
    197. A(H  48,C  50,O  54)          109.4106         0.335732   
    198. A(H  49,C  50,C  52)          111.3832         0.325320   
    199. A(H  48,C  50,C  52)          112.2157         0.325874   
    200. A(H  48,C  50,H  49)          111.2150         0.291268   
    201. A(H  53,C  52,O  55)          109.8303         0.342770   
    202. A(F  51,C  52,O  55)          108.7273         0.405280   
    203. A(C  50,C  52,O  55)          103.4712         0.385286   
    204. A(F  51,C  52,H  53)          108.2864         0.342035   
    205. A(C  50,C  52,H  53)          115.5831         0.326039   
    206. A(C  50,C  52,F  51)          110.7175         0.384427   
    207. A(O   0,H  53,O  44)           63.1466         0.099970   
    208. A(H  32,H  53,O  44)           44.7949         0.095390   
    209. A(O  44,H  53,C  52)          133.9573         0.133823   
    210. A(O   0,H  53,H  32)           20.5200         0.096084   
    211. A(O   0,H  53,C  52)          130.7615         0.138689   
    212. A(H  32,H  53,C  52)          132.0253         0.117944   
    213. A(C   8,H  53,O  44)           78.1554         0.094977   
    214. A(O   0,H  53,C   8)           20.8609         0.095626   
    215. A(C   8,H  53,H  32)           33.5294         0.092860   
    216. A(C   8,H  53,C  52)          110.0174         0.116074   
    217. A(C  50,O  54,C  56)          109.4219         0.412090   
    218. A(C  52,O  55,C  56)          110.2807         0.415387   
    219. A(H  20,O  55,C  56)           71.8007         0.130184   
    220. A(H  20,O  55,C  52)          136.4087         0.129024   
    221. A(H  20,C  56,O  57)           63.8333         0.144923   
    222. A(H  20,C  56,O  55)           83.5749         0.137142   
    223. A(H  20,C  56,O  54)          126.6749         0.137981   
    224. A(O  55,C  56,O  57)          124.1755         0.479120   
    225. A(O  54,C  56,O  57)          125.7394         0.485919   
    226. A(O  54,C  56,O  55)          110.0765         0.430694   
    227. A(H  20,O  57,C  56)           93.8326         0.158963   
    228. A(H  20,O  57,H  24)           43.4959         0.096524   
    229. A(H  24,O  57,C  56)          122.6521         0.137734   
    230. D(C   9,C   3,C   2,C   8)    -65.8650         0.012849   
    231. D(C   5,C   3,C   2,C   7)    -64.3339         0.012849   
    232. D(C   5,C   3,C   2,C   8)    115.1762         0.012849   
    233. D(C   9,C   3,C   2,C   7)    114.6250         0.012849   
    234. D(H  20,C   5,C   3,C   2)     -1.8279         0.025562   
    235. D(H  20,C   5,C   4,C  10)   -179.6289         0.026507   
    236. D(C   4,C   5,C   3,C   2)    179.8801         0.025562   
    237. D(H  20,C   5,C   3,C   9)    179.1792         0.025562   
    238. D(H  20,C   5,C   4,C  11)     -1.8941         0.026507   
    239. D(C   3,C   5,C   4,C  10)     -1.3237         0.026507   
    240. D(C   3,C   5,C   4,C  11)    176.4111         0.026507   
    241. D(C   4,C   5,C   3,C   9)      0.8872         0.025562   
    242. D(C   6,C   7,C   2,C   8)      1.0782         0.025708   
    243. D(H  21,C   7,C   2,C   8)   -179.3907         0.025708   
    244. D(H  21,C   7,C   6,C  13)   -179.7717         0.026287   
    245. D(C   6,C   7,C   2,C   3)   -179.3952         0.025708   
    246. D(C   2,C   7,C   6,C  13)     -0.2453         0.026287   
    247. D(C   2,C   7,C   6,C  12)    178.9441         0.026287   
    248. D(H  21,C   7,C   6,C  12)     -0.5823         0.026287   
    249. D(H  21,C   7,C   2,C   3)      0.1359         0.025708   
    250. D(C  15,C   8,C   2,C   3)    179.2291         0.027976   
    251. D(C  15,C   8,C   2,C   7)     -1.2511         0.027976   
    252. D(O   0,C   8,C   2,C   7)    177.2350         0.027976   
    253. D(C  15,C   8,O   0,H  49)     64.7732         0.038504   
    254. D(C  15,C   8,O   0,H  32)    175.2505         0.038504   
    255. D(O   0,C   8,C   2,C   3)     -2.2849         0.027976   
    256. D(C   2,C   8,O   0,H  49)   -113.7584         0.038504   
    257. D(H  49,C   8,O   0,H  32)    110.4773         0.038504   
    258. D(H  49,C   8,C   2,C   3)    -99.1891         0.027976   
    259. D(C  15,C   8,O   0,H  53)     88.7142         0.038504   
    260. D(C   2,C   8,O   0,H  53)    -89.8173         0.038504   
    261. D(C   2,C   8,O   0,H  32)     -3.2811         0.038504   
    262. D(H  49,C   8,C   2,C   7)     80.3308         0.027976   
    263. D(C  14,C   9,C   3,C   2)   -178.5771         0.025573   
    264. D(H  22,C   9,C   3,C   2)     -0.0869         0.025573   
    265. D(H  22,C   9,C   3,C   5)    178.8994         0.025573   
    266. D(C  14,C   9,C   3,C   5)      0.4092         0.025573   
    267. D(C  14,C  10,C   4,C   5)      0.4790         0.024579   
    268. D(O   1,C  10,C   4,C  11)      0.5315         0.024579   
    269. D(O   1,C  10,C   4,C   5)    178.2447         0.024579   
    270. D(C  14,C  10,O   1,H  33)   -158.2950         0.028349   
    271. D(C   4,C  10,O   1,H  33)     23.8675         0.028349   
    272. D(C  14,C  10,C   4,C  11)   -177.2342         0.024579   
    273. D(H  23,C  11,C   4,C   5)   -114.7224         0.011529   
    274. D(H  24,C  11,C   4,C   5)      0.7840         0.011529   
    275. D(C  16,C  11,C   4,C  10)    -60.1270         0.011529   
    276. D(C  16,C  11,C   4,C   5)    122.2187         0.011529   
    277. D(H  23,C  11,C   4,C  10)     62.9319         0.011529   
    278. D(H  26,C  12,C   6,C   7)    177.0935         0.011371   
    279. D(H  25,C  12,C   6,C  13)    112.2182         0.011371   
    280. D(C  17,C  12,C   6,C   7)     55.8262         0.011371   
    281. D(H  25,C  12,C   6,C   7)    -66.9406         0.011371   
    282. D(C  17,C  12,C   6,C  13)   -125.0151         0.011371   
    283. D(H  27,C  13,C   6,C   7)    179.6263         0.026237   
    284. D(C  15,C  13,C   6,C   7)     -0.4237         0.026237   
    285. D(H  27,C  13,C   6,C  12)      0.4414         0.026237   
    286. D(C  15,C  13,C   6,C  12)   -179.6086         0.026237   
    287. D(C   9,C  14,C  10,O   1)   -177.1105         0.026861   
    288. D(C   9,C  14,C  10,C   4)      0.7672         0.026861   
    289. D(H  28,C  14,C   9,C   3)    177.4687         0.027413   
    290. D(C  10,C  14,C   9,H  22)   -179.7188         0.027413   
    291. D(H  28,C  14,C   9,H  22)     -1.0259         0.027413   
    292. D(C  10,C  14,C   9,C   3)     -1.2241         0.027413   
    293. D(H  28,C  14,C  10,C   4)   -177.9491         0.026861   
    294. D(H  28,C  14,C  10,O   1)      4.1731         0.026861   
    295. D(H  29,C  15,C   8,C   2)   -179.6440         0.032713   
    296. D(H  29,C  15,C  13,H  27)      0.4613         0.029933   
    297. D(C   8,C  15,C  13,H  27)   -179.8197         0.029933   
    298. D(C   8,C  15,C  13,C   6)      0.2301         0.029933   
    299. D(H  29,C  15,C   8,H  49)     72.7904         0.032713   
    300. D(H  29,C  15,C  13,C   6)   -179.4889         0.029933   
    301. D(H  49,C  15,C  13,C   6)    -91.8083         0.029933   
    302. D(H  29,C  15,C   8,O   0)      1.7654         0.032713   
    303. D(C  13,C  15,C   8,H  53)   -129.5042         0.032713   
    304. D(C  13,C  15,C   8,H  49)   -106.9354         0.032713   
    305. D(C  13,C  15,C   8,C   2)      0.6301         0.032713   
    306. D(C  13,C  15,C   8,O   0)   -177.9604         0.032713   
    307. D(H  30,C  16,C  11,H  23)   -178.0734         0.012303   
    308. D(H  30,C  16,C  11,C   4)    -54.6815         0.012303   
    309. D(C  18,C  16,C  11,H  24)   -114.2169         0.012303   
    310. D(C  18,C  16,C  11,H  23)      1.6416         0.012303   
    311. D(C  18,C  16,C  11,C   4)    125.0335         0.012303   
    312. D(H  31,C  17,C  12,H  25)    179.6326         0.012547   
    313. D(H  31,C  17,C  12,C   6)     56.3138         0.012547   
    314. D(C  19,C  17,C  12,H  26)    115.8615         0.012547   
    315. D(C  19,C  17,C  12,H  25)      0.0263         0.012547   
    316. D(C  19,C  17,C  12,C   6)   -123.2925         0.012547   
    317. D(H  35,C  18,C  16,H  30)   -179.0930         0.043375   
    318. D(H  35,C  18,C  16,C  11)      1.2011         0.043375   
    319. D(H  34,C  18,C  16,H  30)     -0.8502         0.043375   
    320. D(H  34,C  18,C  16,C  11)    179.4439         0.043375   
    321. D(H  37,C  19,C  17,H  31)   -179.5336         0.044441   
    322. D(H  37,C  19,C  17,C  12)      0.0596         0.044441   
    323. D(H  36,C  19,C  17,H  31)      0.7107         0.044441   
    324. D(H  36,C  19,C  17,C  12)   -179.6960         0.044441   
    325. D(O  55,H  20,C   5,C   3)    -81.9896         0.140644   
    326. D(C  56,H  20,C   5,C   3)    -78.8735         0.140644   
    327. D(O  57,H  20,C   5,C   4)     75.3972         0.140644   
    328. D(O  57,H  20,C   5,C   3)   -102.9678         0.140644   
    329. D(C  56,H  20,C   5,C   4)     99.4915         0.140644   
    330. D(O  57,H  24,C  11,H  23)     67.2442         0.118188   
    331. D(O  57,H  24,C  11,C  16)   -174.9364         0.118188   
    332. D(O  57,H  24,C  11,C   4)    -50.6672         0.118188   
    333. D(H  49,H  29,C  15,C   8)    -74.9244         0.128873   
    334. D(H  49,H  29,C  15,C  13)    104.8001         0.128873   
    335. D(H  53,H  32,O   0,H  49)    -29.7723         0.379839   
    336. D(H  53,H  32,O   0,C   8)   -110.8383         0.379839   
    337. D(O  44,H  32,O   0,H  49)    -77.1618         0.379839   
    338. D(O  44,H  32,O   0,H  53)    -47.3895         0.379839   
    339. D(O  44,H  32,O   0,C   8)   -158.2278         0.379839   
    340. D(H  47,C  41,O  40,C  43)   -129.4691         0.017827   
    341. D(C  42,C  41,O  40,C  43)    -10.5745         0.017827   
    342. D(H  39,C  41,O  40,C  43)    109.2445         0.017827   
    343. D(O  45,C  42,C  41,H  47)    130.1322         0.011393   
    344. D(O  45,C  42,C  41,O  40)     12.7142         0.011393   
    345. D(O  45,C  42,C  41,H  39)   -104.8446         0.011393   
    346. D(H  38,C  42,C  41,H  47)   -109.9584         0.011393   
    347. D(H  38,C  42,C  41,H  39)     15.0648         0.011393   
    348. D(H  38,C  42,C  41,O  40)    132.6236         0.011393   
    349. D(O  44,C  43,O  40,C  41)   -175.2568         0.032612   
    350. D(O  45,C  43,O  40,C  41)      4.2916         0.032612   
    351. D(H  32,O  44,C  43,O  45)   -103.5414         0.130045   
    352. D(H  32,O  44,C  43,O  40)     75.9472         0.130045   
    353. D(H  53,O  44,C  43,O  40)   -168.2514         0.130045   
    354. D(H  53,O  44,H  32,O   0)     50.1530         0.001530   
    355. D(C  43,O  44,H  32,H  53)    149.6603         0.001530   
    356. D(C  43,O  44,H  32,O   0)   -160.1867         0.001530   
    357. D(H  53,O  44,C  43,O  45)     12.2600         0.130045   
    358. D(C  42,O  45,C  43,O  44)   -175.7093         0.027735   
    359. D(C  42,O  45,C  43,O  40)      4.7350         0.027735   
    360. D(C  43,O  45,C  42,F  46)    107.1574         0.022776   
    361. D(C  43,O  45,C  42,C  41)    -10.9329         0.022776   
    362. D(C  43,O  45,C  42,H  38)   -135.0016         0.022776   
    363. D(O   0,H  49,H  29,C  15)     69.3681         0.001500   
    364. D(C   8,H  49,H  29,C  15)     35.2816         0.001500   
    365. D(O   0,H  49,C  15,C   8)     30.8053         0.001500   
    366. D(C   8,H  49,C  15,H  29)   -121.1411         0.001500   
    367. D(C   8,H  49,C  15,C  13)    119.7151         0.001500   
    368. D(H  29,H  49,C  15,C   8)    121.1411         0.001500   
    369. D(C  50,H  49,C  15,H  29)   -134.9740         0.001500   
    370. D(C  50,H  49,C  15,C  13)    105.8822         0.001500   
    371. D(C  15,H  49,C   8,O   0)    121.4013         0.001500   
    372. D(H  29,H  49,C   8,H  53)    119.1236         0.001500   
    373. D(H  29,H  49,C   8,C  15)    -27.8416         0.001500   
    374. D(H  29,H  49,C   8,C   2)   -142.9765         0.001500   
    375. D(H  29,H  49,C   8,O   0)     93.5597         0.001500   
    376. D(C  50,H  49,C   8,H  53)    -39.9659         0.001500   
    377. D(C  50,H  49,C   8,C  15)    173.0689         0.001500   
    378. D(C  50,H  49,C   8,C   2)     57.9340         0.001500   
    379. D(C  50,H  49,C  15,C   8)    -13.8329         0.001500   
    380. D(C  50,H  49,C   8,O   0)    -65.5298         0.001500   
    381. D(C  15,H  49,O   0,H  32)   -140.1368         0.001500   
    382. D(C  15,H  49,O   0,C   8)    -32.8451         0.001500   
    383. D(H  29,H  49,C  15,C  13)   -119.1438         0.001500   
    384. D(H  29,H  49,O   0,H  53)    149.1760         0.001500   
    385. D(H  29,H  49,O   0,H  32)   -168.8773         0.001500   
    386. D(H  29,H  49,O   0,C   8)    -61.5856         0.001500   
    387. D(C  50,H  49,H  29,C  15)    107.6028         0.001500   
    388. D(C  50,H  49,O   0,H  53)    -19.5245         0.001500   
    389. D(C  50,H  49,O   0,H  32)     22.4221         0.001500   
    390. D(C  50,H  49,O   0,C   8)    129.7138         0.001500   
    391. D(C  52,C  50,H  49,O   0)      8.1688         0.161825   
    392. D(C  52,C  50,H  49,C   8)     33.7917         0.161825   
    393. D(C  52,C  50,H  49,C  15)     41.9754         0.161825   
    394. D(C  52,C  50,H  49,H  29)    -23.4089         0.161825   
    395. D(H  48,C  50,H  49,O   0)    134.1527         0.161825   
    396. D(H  48,C  50,H  49,C   8)    159.7755         0.161825   
    397. D(H  48,C  50,H  49,C  15)    167.9593         0.161825   
    398. D(H  48,C  50,H  49,H  29)    102.5750         0.161825   
    399. D(H  53,C  52,C  50,O  54)    138.2020         0.011556   
    400. D(H  53,C  52,C  50,H  49)     21.3949         0.011556   
    401. D(H  53,C  52,C  50,H  48)   -104.0345         0.011556   
    402. D(F  51,C  52,C  50,O  54)    -98.2251         0.011556   
    403. D(F  51,C  52,C  50,H  49)    144.9678         0.011556   
    404. D(F  51,C  52,C  50,H  48)     19.5384         0.011556   
    405. D(O  44,H  53,C  52,O  55)    -26.7920         0.176475   
    406. D(O  44,H  53,C  52,C  50)   -143.3567         0.176475   
    407. D(O   0,H  53,C  52,O  55)     63.3647         0.176475   
    408. D(O   0,H  53,C  52,F  51)   -178.0396         0.176475   
    409. D(O   0,H  53,C  52,C  50)    -53.2000         0.176475   
    410. D(H  32,H  53,C  52,O  55)     35.9459         0.176475   
    411. D(H  32,H  53,C  52,F  51)    154.5415         0.176475   
    412. D(H  32,H  53,C  52,C  50)    -80.6189         0.176475   
    413. D(C   8,H  53,O  44,C  43)   -129.7439         0.001500   
    414. D(O   0,H  53,O  44,H  32)    -11.4876         0.001500   
    415. D(O   0,H  53,O  44,C  43)   -145.1655         0.001500   
    416. D(C  52,H  53,O  44,H  32)    110.4114         0.001500   
    417. D(C  52,H  53,O  44,C  43)    -23.2665         0.001500   
    418. D(C   8,H  53,H  32,O  44)   -173.0176         0.001501   
    419. D(O  44,H  53,H  32,O   0)   -149.5436         0.001501   
    420. D(O   0,H  53,H  32,O  44)    149.5436         0.001501   
    421. D(C  52,H  53,H  32,O  44)   -114.7414         0.001501   
    422. D(C  52,H  53,H  32,O   0)     95.7149         0.001501   
    423. D(O   0,H  53,C   8,C  15)   -110.4505         0.001500   
    424. D(O   0,H  53,C   8,C   2)    115.5095         0.001500   
    425. D(H  32,H  53,C   8,H  49)   -179.9925         0.001500   
    426. D(H  32,H  53,C   8,C  15)   -147.2068         0.001500   
    427. D(C   8,H  53,H  32,O   0)     37.4387         0.001501   
    428. D(H  32,H  53,C   8,C   2)     78.7533         0.001500   
    429. D(H  32,H  53,C   8,O   0)    -36.7562         0.001500   
    430. D(C  52,H  53,C   8,H  49)     42.2668         0.001500   
    431. D(H  32,H  53,O  44,C  43)   -133.6779         0.001500   
    432. D(C  52,H  53,C   8,C  15)     75.0526         0.001500   
    433. D(C  52,H  53,C   8,C   2)    -58.9874         0.001500   
    434. D(C  52,H  53,C   8,O   0)   -174.4969         0.001500   
    435. D(C   8,H  53,O  44,H  32)      3.9341         0.001500   
    436. D(C   8,H  53,O   0,H  32)   -109.4447         0.001501   
    437. D(O  44,H  53,O   0,H  49)    165.3125         0.001501   
    438. D(O  44,H  53,O   0,H  32)     23.5970         0.001501   
    439. D(O  44,H  53,O   0,C   8)    133.0417         0.001501   
    440. D(H  32,H  53,O   0,H  49)    141.7155         0.001501   
    441. D(H  32,H  53,O   0,C   8)    109.4447         0.001501   
    442. D(C  52,H  53,O   0,H  49)     39.1031         0.001501   
    443. D(O  44,H  53,C  52,F  51)     91.8037         0.176475   
    444. D(C  52,H  53,O   0,H  32)   -102.6125         0.001501   
    445. D(C  52,H  53,O   0,C   8)      6.8323         0.001501   
    446. D(C  56,O  54,C  50,C  52)    -14.9185         0.019118   
    447. D(C  56,O  54,C  50,H  49)    103.6048         0.019118   
    448. D(C  56,O  54,C  50,H  48)   -134.6270         0.019118   
    449. D(H  20,O  55,C  52,H  53)    -55.0567         0.026421   
    450. D(H  20,O  55,C  52,F  51)   -173.3800         0.026421   
    451. D(H  20,O  55,C  52,C  50)     68.8894         0.026421   
    452. D(C  56,O  55,C  52,H  53)   -139.6203         0.026421   
    453. D(C  56,O  55,C  52,F  51)    102.0563         0.026421   
    454. D(C  56,O  55,C  52,C  50)    -15.6742         0.026421   
    455. D(C  56,O  55,H  20,O  57)    -23.9860         0.001500   
    456. D(C  56,O  55,H  20,C   5)    174.1459         0.001500   
    457. D(C  52,O  55,H  20,C  56)   -100.5929         0.001500   
    458. D(C  52,O  55,H  20,O  57)   -124.5790         0.001500   
    459. D(C  52,O  55,H  20,C   5)     73.5530         0.001500   
    460. D(H  20,C  56,O  55,C  52)    133.7343         0.034608   
    461. D(O  57,C  56,O  55,H  20)     52.2036         0.034608   
    462. D(O  57,C  56,O  55,C  52)   -174.0621         0.034608   
    463. D(O  54,C  56,O  55,H  20)   -126.7824         0.034608   
    464. D(O  54,C  56,O  55,C  52)      6.9519         0.034608   
    465. D(H  20,C  56,O  54,C  50)    -91.2443         0.037981   
    466. D(O  57,C  56,O  54,C  50)   -173.1096         0.037981   
    467. D(O  55,C  56,O  54,C  50)      5.8569         0.037981   
    468. D(O  57,C  56,H  20,C   5)   -140.5171         0.001500   
    469. D(O  55,C  56,H  20,O  57)    133.2481         0.001500   
    470. D(O  55,C  56,H  20,C   5)     -7.2689         0.001500   
    471. D(O  54,C  56,H  20,O  55)    110.2945         0.001500   
    472. D(O  54,C  56,H  20,O  57)   -116.4573         0.001500   
    473. D(O  54,C  56,H  20,C   5)    103.0256         0.001500   
    474. D(H  24,O  57,C  56,O  54)    152.6502         0.143922   
    475. D(H  20,O  57,C  56,O  55)    -61.0325         0.143922   
    476. D(H  20,O  57,C  56,O  54)    117.7941         0.143922   
    477. D(H  20,O  57,H  24,C  11)     63.7890         0.001500   
    478. D(C  56,O  57,H  24,C  11)      7.8469         0.001500   
    479. D(H  24,O  57,H  20,O  55)   -109.1745         0.001500   
    480. D(H  24,O  57,H  20,C  56)   -135.6447         0.001500   
    481. D(H  24,O  57,H  20,C   5)    -78.5140         0.001500   
    482. D(C  56,O  57,H  20,O  55)     26.4702         0.001500   
    483. D(H  24,O  57,C  56,O  55)    -26.1764         0.143922   
    484. D(C  56,O  57,H  20,C   5)     57.1307         0.001500   
    485. D(H  24,O  57,C  56,H  20)     34.8561         0.143922   
    -----------------------------------------------------------------

Number of atoms                         .... 58
Number of degrees of freedom            .... 485


         *************************************************************
         *                GEOMETRY OPTIMIZATION CYCLE   1            *
         *************************************************************
---------------------------------
CARTESIAN COORDINATES (ANGSTROEM)
---------------------------------
  O      1.645978    1.692409    2.135357
  O     -3.621937   -1.780477    1.900117
  C      1.499549    0.058390    0.328883
  C      0.149665   -0.421599    0.735731
  C     -2.237817   -0.648765    0.252020
  C     -0.959298   -0.214550   -0.088609
  C      3.391464   -0.074108   -1.220720
  C      2.124983   -0.475424   -0.799844
  C      2.174606    1.057444    1.051129
  C     -0.045542   -1.108588    1.936560
  C     -2.396099   -1.342990    1.460058
  C     -3.422477   -0.329263   -0.637679
  C      4.041914   -0.699688   -2.440816
  C      4.041831    0.905821   -0.472652
  C     -1.304192   -1.575999    2.289447
  C      3.443705    1.467344    0.646493
  C     -4.164737   -1.546560   -1.123845
  C      3.207107   -0.600716   -3.687431
  C     -5.468156   -1.763300   -0.966850
  C      2.816066   -1.630719   -4.428204
  H     -0.831528    0.327702   -1.017726
  H      1.599036   -1.238805   -1.361945
  H      0.797106   -1.301053    2.589503
  H     -4.117842    0.333062   -0.110556
  H     -3.055294    0.235572   -1.498451
  H      4.272623   -1.752266   -2.246545
  H      5.000732   -0.199234   -2.612956
  H      5.031009    1.238345   -0.766823
  H     -1.449114   -2.143731    3.199992
  H      3.947170    2.234776    1.222093
  H     -3.561908   -2.292393   -1.636043
  H      2.910560    0.404559   -3.976674
  H      0.735210    1.412607    2.318562
  H     -4.222191   -1.883596    1.145001
  H     -5.944684   -2.657462   -1.348529
  H     -6.110264   -1.039397   -0.474688
  H      2.218019   -1.493408   -5.320483
  H      3.083640   -2.650238   -4.170816
  H     -4.781146    0.374149    3.306301
  H     -3.300156   -0.767218    4.850878
  O     -2.046863    0.873801    4.878986
  C     -3.357878    0.307923    5.014540
  C     -4.167683    1.017295    3.931872
  C     -1.977671    1.599220    3.749951
  O     -0.997646    2.123864    3.325358
  O     -3.197029    1.647144    3.140061
  F     -4.984333    1.978354    4.485149
  H     -3.743692    0.527224    6.007857
  H      1.377401    5.597332   -0.551175
  H      1.943076    3.925592   -0.213823
  C      1.086727    4.553540   -0.460274
  F     -0.722729    5.542751    0.749547
  C     -0.051700    4.356681    0.534780
  H      0.234118    3.947154    1.499680
  O      0.522539    4.105440   -1.702200
  O     -0.911572    3.465720   -0.124497
  C     -0.604391    3.408278   -1.456793
  O     -1.239552    2.809484   -2.263028

----------------------------
CARTESIAN COORDINATES (A.U.)
----------------------------
  NO LB      ZA    FRAG     MASS         X           Y           Z
   0 O     8.0000    0    15.999    3.110447    3.198190    4.035241
   1 O     8.0000    0    15.999   -6.844469   -3.364614    3.590701
   2 C     6.0000    0    12.011    2.833737    0.110340    0.621498
   3 C     6.0000    0    12.011    0.282826   -0.796707    1.390329
   4 C     6.0000    0    12.011   -4.228861   -1.225988    0.476249
   5 C     6.0000    0    12.011   -1.812810   -0.405441   -0.167447
   6 C     6.0000    0    12.011    6.408939   -0.140044   -2.306827
   7 C     6.0000    0    12.011    4.015637   -0.898420   -1.511487
   8 C     6.0000    0    12.011    4.109411    1.998279    1.986346
   9 C     6.0000    0    12.011   -0.086062   -2.094928    3.659569
  10 C     6.0000    0    12.011   -4.527971   -2.537884    2.759110
  11 C     6.0000    0    12.011   -6.467545   -0.622216   -1.205039
  12 C     6.0000    0    12.011    7.638111   -1.322219   -4.612474
  13 C     6.0000    0    12.011    7.637954    1.711753   -0.893182
  14 C     6.0000    0    12.011   -2.464565   -2.978207    4.326428
  15 C     6.0000    0    12.011    6.507659    2.772878    1.221695
  16 C     6.0000    0    12.011   -7.870213   -2.922574   -2.123760
  17 C     6.0000    0    12.011    6.060554   -1.135189   -6.968235
  18 C     6.0000    0    12.011  -10.333317   -3.332155   -1.827081
  19 C     6.0000    0    12.011    5.321593   -3.081613   -8.368093
  20 H     1.0000    0     1.008   -1.571361    0.619268   -1.923223
  21 H     1.0000    0     1.008    3.021739   -2.341002   -2.573703
  22 H     1.0000    0     1.008    1.506311   -2.458634    4.893452
  23 H     1.0000    0     1.008   -7.781593    0.629396   -0.208920
  24 H     1.0000    0     1.008   -5.773669    0.445167   -2.831663
  25 H     1.0000    0     1.008    8.074087   -3.311302   -4.245354
  26 H     1.0000    0     1.008    9.450015   -0.376499   -4.937770
  27 H     1.0000    0     1.008    9.507229    2.340133   -1.449085
  28 H     1.0000    0     1.008   -2.738428   -4.051064    6.047108
  29 H     1.0000    0     1.008    7.459070    4.223114    2.309422
  30 H     1.0000    0     1.008   -6.731030   -4.331995   -3.091673
  31 H     1.0000    0     1.008    5.500161    0.764505   -7.514824
  32 H     1.0000    0     1.008    1.389346    2.669441    4.381448
  33 H     1.0000    0     1.008   -7.978784   -3.559481    2.163739
  34 H     1.0000    0     1.008  -11.233825   -5.021876   -2.548351
  35 H     1.0000    0     1.008  -11.546726   -1.964177   -0.897031
  36 H     1.0000    0     1.008    4.191448   -2.822132  -10.054255
  37 H     1.0000    0     1.008    5.827234   -5.008225   -7.881701
  38 H     1.0000    0     1.008   -9.035057    0.707039    6.248003
  39 H     1.0000    0     1.008   -6.236391   -1.449831    9.166830
  40 O     8.0000    0    15.999   -3.868010    1.651245    9.219947
  41 C     6.0000    0    12.011   -6.345469    0.581891    9.476107
  42 C     6.0000    0    12.011   -7.875779    1.922409    7.430161
  43 C     6.0000    0    12.011   -3.737257    3.022088    7.086381
  44 O     8.0000    0    15.999   -1.885277    4.013522    6.284017
  45 O     8.0000    0    15.999   -6.041509    3.112651    5.933855
  46 F     9.0000    0    18.998   -9.419025    3.738547    8.475704
  47 H     1.0000    0     1.008   -7.074553    0.996309   11.353204
  48 H     1.0000    0     1.008    2.602912   10.577424   -1.041570
  49 H     1.0000    0     1.008    3.671882    7.418294   -0.404067
  50 C     6.0000    0    12.011    2.053617    8.604943   -0.869791
  51 F     9.0000    0    18.998   -1.365759   10.474282    1.416438
  52 C     6.0000    0    12.011   -0.097699    8.232934    1.010588
  53 H     1.0000    0     1.008    0.442420    7.459039    2.833984
  54 O     8.0000    0    15.999    0.987456    7.758157   -3.216691
  55 O     8.0000    0    15.999   -1.722621    6.549262   -0.235264
  56 C     6.0000    0    12.011   -1.142134    6.440712   -2.752940
  57 O     8.0000    0    15.999   -2.342415    5.309156   -4.276503

--------------------------------
INTERNAL COORDINATES (ANGSTROEM)
--------------------------------
 O      0   0   0     0.000000000000     0.00000000     0.00000000
 O      1   0   0     6.314047848344     0.00000000     0.00000000
 C      1   2   0     2.440248347615    63.51601256     0.00000000
 C      3   1   2     1.489329046701    93.89718596     0.28926486
 C      2   1   3     2.431621749989    45.11832124   317.90771347
 C      5   2   1     1.392545187490   146.46208580    29.64804014
 C      3   1   2     2.449115869475   117.27514415   179.70912799
 C      7   3   1     1.393615765066    28.65517597   182.12755252
 C      1   2   3     1.363151308345    92.16102313   358.92515269
 C      4   3   1     1.397158518009   121.32509989   293.06981443
 C      2   1   3     1.373945116997    24.82641751   356.44664457
 C      5   2   1     1.515607570315    92.92690876   212.90915500
 C      7   3   1     1.517586732763   149.55143513   180.33955946
 C      7   3   1     1.393859836452    89.01626108     1.91028425
 C     10   4   3     1.388236728109   120.71095229   181.42292835
 C     14   7   3     1.387641111824   121.07858709   359.45867936
 C     12   5   2     1.506359627178   113.84456012   300.12715828
 C     13   7   3     1.503578438974   113.66998922    56.82533090
 C     17  12   5     1.330610551789   125.18596708   125.03348306
 C     18  13   7     1.327615830219   125.10526563   236.70753052
 H      6   5   2     1.083338008540   118.30367999   181.88853691
 H      8   7   3     1.084125976483   119.14786399   180.47362600
 H     10   4   3     1.083250819051   119.78458557   359.91310506
 H     12   5   2     1.095474666036   109.94654467    63.18609320
 H     12   5   2     1.093064892728   107.97714658   178.69253091
 H     13   7   3     1.094936942868   110.11688979   294.05861031
 H     13   7   3     1.095179434865   108.25465897   178.09265603
 H     14   7   3     1.084241875259   119.71486877   179.50869513
 H     15  10   4     1.082780370834   120.77379805   177.46869144
 H     16  14   7     1.083395000500   120.98602271   180.51106971
 H     17  12   5     1.087206266125   115.67065673   305.31845044
 H     18  13   7     1.087280567091   115.64855782    56.31384229
 H      1   2   3     0.970232432162    20.80948728   165.04280506
 H      2   1   3     0.970122685454   127.13460198   305.59277241
 H     19  17  12     1.082720405380   121.60462415   179.44391253
 H     19  17  12     1.085615785806   121.61816561     1.20107498
 H     20  18  13     1.082901690899   121.60387160   180.30396006
 H     20  18  13     1.085017620339   121.60070810     0.05961736
 H      2   1   3     2.821973111098    84.50272168   204.18030941
 H     39   2   1     2.425235782445    72.97321036   288.52586208
 O     40  39   2     2.065060877167    90.30346869   112.49097802
 C     40  39   2     1.089056934718    66.34278413   146.80829114
 C     39   2   1     1.086882341697   120.44745233   333.69621831
 C     41  40  39     1.343777838729   116.66662938   328.27441716
 O     44  41  40     1.189949858320   125.46548132   216.51714288
 O     44  41  40     1.364219615205   110.39925648    36.06552992
 F     43  39   2     1.377196086931   108.02728752   179.66909249
 H     42  40  39     1.087944970782   110.79352716   118.79879365
 H     30  16  14     4.588569516474    93.06783735   103.42165752
 H     49  30  16     1.796804479319    21.45988939     6.19296707
 C     49  30  16     1.087315782923    54.12138400    25.79899779
 F     51  49  30     2.390885984753    81.22486112   123.50869542
 C     52  51  49     1.379553236649    36.61971219   198.25699727
 H     53  52  51     1.086478719790   108.28643749   127.67721890
 O     51  49  30     1.435786143906   109.41055388   227.08017933
 O     53  52  51     1.402795669620   108.72733418   246.97042274
 C     55  51  49     1.347676173943   109.42193692   225.37296223
 O     57  55  51     1.188275260888   125.73941463   186.89041435

---------------------------
INTERNAL COORDINATES (A.U.)
---------------------------
 O      0   0   0     0.000000000000     0.00000000     0.00000000
 O      1   0   0    11.931821229845     0.00000000     0.00000000
 C      1   2   0     4.611401075746    63.51601256     0.00000000
 C      3   1   2     2.814424021560    93.89718596     0.28926486
 C      2   1   3     4.595099168765    45.11832124   317.90771347
 C      5   2   1     2.631529033467   146.46208580    29.64804014
 C      3   1   2     4.628158263549   117.27514415   179.70912799
 C      7   3   1     2.633552131891    28.65517597   182.12755252
 C      1   2   3     2.575982651868    92.16102313   358.92515269
 C      4   3   1     2.640246964712   121.32509989   293.06981443
 C      2   1   3     2.596379994163    24.82641751   356.44664457
 C      5   2   1     2.864083234393    92.92690876   212.90915500
 C      7   3   1     2.867823309394   149.55143513   180.33955946
 C      7   3   1     2.634013359966    89.01626108     1.91028425
 C     10   4   3     2.623387225177   120.71095229   181.42292835
 C     14   7   3     2.622261673518   121.07858709   359.45867936
 C     12   5   2     2.846607154562   113.84456012   300.12715828
 C     13   7   3     2.841351470530   113.66998922    56.82533090
 C     17  12   5     2.514489533787   125.18596708   125.03348306
 C     18  13   7     2.508830330173   125.10526563   236.70753052
 H      6   5   2     2.047212146607   118.30367999   181.88853691
 H      8   7   3     2.048701190223   119.14786399   180.47362600
 H     10   4   3     2.047047382352   119.78458557   359.91310506
 H     12   5   2     2.070147105457   109.94654467    63.18609320
 H     12   5   2     2.065593293860   107.97714658   178.69253091
 H     13   7   3     2.069130955933   110.11688979   294.05861031
 H     13   7   3     2.069589199398   108.25465897   178.09265603
 H     14   7   3     2.048920207170   119.71486877   179.50869513
 H     15  10   4     2.046158364063   120.77379805   177.46869144
 H     16  14   7     2.047319845805   120.98602271   180.51106971
 H     17  12   5     2.054522094060   115.67065673   305.31845044
 H     18  13   7     2.054662502537   115.64855782    56.31384229
 H      1   2   3     1.833473583034    20.80948728   165.04280506
 H      2   1   3     1.833266191813   127.13460198   305.59277241
 H     19  17  12     2.046045045776   121.60462415   179.44391253
 H     19  17  12     2.051516521835   121.61816561     1.20107498
 H     20  18  13     2.046387625760   121.60387160   180.30396006
 H     20  18  13     2.050386152919   121.60070810     0.05961736
 H      2   1   3     5.332756337264    84.50272168   204.18030941
 H     39   2   1     4.583031439007    72.97321036   288.52586208
 O     40  39   2     3.902399507720    90.30346869   112.49097802
 C     40  39   2     2.058019350865    66.34278413   146.80829114
 C     39   2   1     2.053909965602   120.44745233   333.69621831
 C     41  40  39     2.539372100031   116.66662938   328.27441716
 O     44  41  40     2.248679345323   125.46548132   216.51714288
 O     44  41  40     2.578001459261   110.39925648    36.06552992
 F     43  39   2     2.602523437007   108.02728752   179.66909249
 H     42  40  39     2.055918043555   110.79352716   118.79879365
 H     30  16  14     8.671139732596    93.06783735   103.42165752
 H     49  30  16     3.395468382116    21.45988939     6.19296707
 C     49  30  16     2.054729050815    54.12138400    25.79899779
 F     51  49  30     4.518119728614    81.22486112   123.50869542
 C     52  51  49     2.606977804431    36.61971219   198.25699727
 H     53  52  51     2.053147230736   108.28643749   127.67721890
 O     51  49  30     2.713242598861   109.41055388   227.08017933
 O     53  52  51     2.650899637432   108.72733418   246.97042274
 C     55  51  49     2.546738885963   109.42193692   225.37296223
 O     57  55  51     2.245514814792   125.73941463   186.89041435

---------------------
BASIS SET INFORMATION
---------------------
There are 4 groups of distinct atoms

 Group   1 Type O   : 11s6p2d1f contracted to 5s3p2d1f pattern {62111/411/11/1}
 Group   2 Type C   : 11s6p2d1f contracted to 5s3p2d1f pattern {62111/411/11/1}
 Group   3 Type H   : 5s1p contracted to 3s1p pattern {311/1}
 Group   4 Type F   : 11s6p2d1f contracted to 5s3p2d1f pattern {62111/411/11/1}

Atom   0O    basis set group =>   1
Atom   1O    basis set group =>   1
Atom   2C    basis set group =>   2
Atom   3C    basis set group =>   2
Atom   4C    basis set group =>   2
Atom   5C    basis set group =>   2
Atom   6C    basis set group =>   2
Atom   7C    basis set group =>   2
Atom   8C    basis set group =>   2
Atom   9C    basis set group =>   2
Atom  10C    basis set group =>   2
Atom  11C    basis set group =>   2
Atom  12C    basis set group =>   2
Atom  13C    basis set group =>   2
Atom  14C    basis set group =>   2
Atom  15C    basis set group =>   2
Atom  16C    basis set group =>   2
Atom  17C    basis set group =>   2
Atom  18C    basis set group =>   2
Atom  19C    basis set group =>   2
Atom  20H    basis set group =>   3
Atom  21H    basis set group =>   3
Atom  22H    basis set group =>   3
Atom  23H    basis set group =>   3
Atom  24H    basis set group =>   3
Atom  25H    basis set group =>   3
Atom  26H    basis set group =>   3
Atom  27H    basis set group =>   3
Atom  28H    basis set group =>   3
Atom  29H    basis set group =>   3
Atom  30H    basis set group =>   3
Atom  31H    basis set group =>   3
Atom  32H    basis set group =>   3
Atom  33H    basis set group =>   3
Atom  34H    basis set group =>   3
Atom  35H    basis set group =>   3
Atom  36H    basis set group =>   3
Atom  37H    basis set group =>   3
Atom  38H    basis set group =>   3
Atom  39H    basis set group =>   3
Atom  40O    basis set group =>   1
Atom  41C    basis set group =>   2
Atom  42C    basis set group =>   2
Atom  43C    basis set group =>   2
Atom  44O    basis set group =>   1
Atom  45O    basis set group =>   1
Atom  46F    basis set group =>   4
Atom  47H    basis set group =>   3
Atom  48H    basis set group =>   3
Atom  49H    basis set group =>   3
Atom  50C    basis set group =>   2
Atom  51F    basis set group =>   4
Atom  52C    basis set group =>   2
Atom  53H    basis set group =>   3
Atom  54O    basis set group =>   1
Atom  55O    basis set group =>   1
Atom  56C    basis set group =>   2
Atom  57O    basis set group =>   1
---------------------------------
AUXILIARY/J BASIS SET INFORMATION
---------------------------------
There are 4 groups of distinct atoms

 Group   1 Type O   : 12s5p4d2f1g contracted to 6s4p3d1f1g pattern {711111/2111/211/2/1}
 Group   2 Type C   : 12s5p4d2f1g contracted to 6s4p3d1f1g pattern {711111/2111/211/2/1}
 Group   3 Type H   : 5s2p1d contracted to 3s1p1d pattern {311/2/1}
 Group   4 Type F   : 12s5p4d2f1g contracted to 6s4p3d1f1g pattern {711111/2111/211/2/1}

Atom   0O    basis set group =>   1
Atom   1O    basis set group =>   1
Atom   2C    basis set group =>   2
Atom   3C    basis set group =>   2
Atom   4C    basis set group =>   2
Atom   5C    basis set group =>   2
Atom   6C    basis set group =>   2
Atom   7C    basis set group =>   2
Atom   8C    basis set group =>   2
Atom   9C    basis set group =>   2
Atom  10C    basis set group =>   2
Atom  11C    basis set group =>   2
Atom  12C    basis set group =>   2
Atom  13C    basis set group =>   2
Atom  14C    basis set group =>   2
Atom  15C    basis set group =>   2
Atom  16C    basis set group =>   2
Atom  17C    basis set group =>   2
Atom  18C    basis set group =>   2
Atom  19C    basis set group =>   2
Atom  20H    basis set group =>   3
Atom  21H    basis set group =>   3
Atom  22H    basis set group =>   3
Atom  23H    basis set group =>   3
Atom  24H    basis set group =>   3
Atom  25H    basis set group =>   3
Atom  26H    basis set group =>   3
Atom  27H    basis set group =>   3
Atom  28H    basis set group =>   3
Atom  29H    basis set group =>   3
Atom  30H    basis set group =>   3
Atom  31H    basis set group =>   3
Atom  32H    basis set group =>   3
Atom  33H    basis set group =>   3
Atom  34H    basis set group =>   3
Atom  35H    basis set group =>   3
Atom  36H    basis set group =>   3
Atom  37H    basis set group =>   3
Atom  38H    basis set group =>   3
Atom  39H    basis set group =>   3
Atom  40O    basis set group =>   1
Atom  41C    basis set group =>   2
Atom  42C    basis set group =>   2
Atom  43C    basis set group =>   2
Atom  44O    basis set group =>   1
Atom  45O    basis set group =>   1
Atom  46F    basis set group =>   4
Atom  47H    basis set group =>   3
Atom  48H    basis set group =>   3
Atom  49H    basis set group =>   3
Atom  50C    basis set group =>   2
Atom  51F    basis set group =>   4
Atom  52C    basis set group =>   2
Atom  53H    basis set group =>   3
Atom  54O    basis set group =>   1
Atom  55O    basis set group =>   1
Atom  56C    basis set group =>   2
Atom  57O    basis set group =>   1
--------------------------------------------------------------------------
WARNING: There was an error initializing an OpenFabrics device.

  Local host:   ga00
  Local device: mlx5_0
--------------------------------------------------------------------------


           ************************************************************
           *        Program running with 30 parallel MPI-processes    *
           *              working on a common directory               *
           ************************************************************
------------------------------------------------------------------------------
                             ORCA STARTUP CALCULATIONS
                           -- RI-GTO INTEGRALS CHOSEN --
------------------------------------------------------------------------------
------------------------------------------------------------------------------
                   ___                                                        
                  /   \      - P O W E R E D   B Y -                         
                 /     \                                                     
                 |  |  |   _    _      __       _____    __    __             
                 |  |  |  | |  | |    /  \     |  _  \  |  |  /  |          
                  \  \/   | |  | |   /    \    | | | |  |  | /  /          
                 / \  \   | |__| |  /  /\  \   | |_| |  |  |/  /          
                |  |  |   |  __  | /  /__\  \  |    /   |      \           
                |  |  |   | |  | | |   __   |  |    \   |  |\   \          
                \     /   | |  | | |  |  |  |  | |\  \  |  | \   \       
                 \___/    |_|  |_| |__|  |__|  |_| \__\ |__|  \__/        
                                                                              
                      - O R C A' S   B I G   F R I E N D -                    
                                      &                                       
                       - I N T E G R A L  F E E D E R -                       
                                                                              
 v1 FN, 2020, v2 2021, v3 2022-2024                                           
------------------------------------------------------------------------------


----------------------
SHARK INTEGRAL PACKAGE
----------------------

Number of atoms                             ...     58
Number of basis functions                   ...   1198
Number of shells                            ...    470
Maximum angular momentum                    ...      3
Integral batch strategy                     ... SHARK/LIBINT Hybrid
RI-J (if used) integral strategy            ... SPLIT-RIJ (Revised 2003 algorithm where possible)
Printlevel                                  ...      1
Contraction scheme used                     ... SEGMENTED contraction
Prescreening option                         ... SCHWARTZ
   Thresh                                   ... 2.500e-11
   Tcut                                     ... 2.500e-12
   Tpresel                                  ... 2.500e-12 
Coulomb Range Separation                    ... NOT USED
Exchange Range Separation                   ... NOT USED
Multipole approximations                    ... NOT USED
Finite Nucleus Model                        ... NOT USED
CABS basis                                  ... NOT available
Auxiliary Coulomb fitting basis             ... AVAILABLE
   # of basis functions in Aux-J            ...   1930
   # of shells in Aux-J                     ...    630
   Maximum angular momentum in Aux-J        ...      4
Auxiliary J/K fitting basis                 ... NOT available
Auxiliary Correlation fitting basis         ... NOT available
Auxiliary 'external' fitting basis          ... NOT available

Checking pre-screening integrals            ... done (  0.0 sec) Dimension = 470
Check shell pair data                       ... done (  0.0 sec)
Shell pair information
Shell pair cut-off parameter TPreSel        ...   2.5e-12
Total number of shell pairs                 ...    110685
Shell pairs after pre-screening             ...     64960
Total number of primitive shell pairs       ...    340720
Primitive shell pairs kept                  ...    125356
          la=0 lb=0:  16805 shell pairs
          la=1 lb=0:  19219 shell pairs
          la=1 lb=1:   5516 shell pairs
          la=2 lb=0:   8987 shell pairs
          la=2 lb=1:   5278 shell pairs
          la=2 lb=2:   1235 shell pairs
          la=3 lb=0:   4096 shell pairs
          la=3 lb=1:   2486 shell pairs
          la=3 lb=2:   1081 shell pairs
          la=3 lb=3:    257 shell pairs

Calculating one electron integrals          ... done (  0.1 sec)
Calculating RI/J V-Matrix + Cholesky decomp.... done (  0.2 sec)
Calculating Nuclear repulsion               ... done (  0.0 sec) ENN=   3720.740405262698 Eh

Diagonalization of the overlap matrix:
Smallest eigenvalue                        ... 5.087e-06
Time for diagonalization                   ...    0.166 sec
Threshold for overlap eigenvalues          ... 1.000e-07
Number of eigenvalues below threshold      ... 0
Time for construction of square roots      ...    0.099 sec
Total time needed                          ...    0.275 sec

-------------------
DFT GRID GENERATION
-------------------

General Integration Accuracy     IntAcc      ... 4.388
Radial Grid Type                 RadialGrid  ... OptM3 with GC (2021)
Angular Grid (max. ang.)         AngularGrid ... 4 (Lebedev-302)
Angular grid pruning method      GridPruning ... 4 (adaptive)
Weight generation scheme         WeightScheme... mBecke (2022)
Basis function cutoff            BFCut       ... 1.0000e-11
Integration weight cutoff        WCut        ... 1.0000e-14
Partially contracted basis set               ... off
Rotationally invariant grid construction     ... off
Angular grids for H and He will be reduced by one unit

Total number of grid points                  ...   279593
Total number of batches                      ...     4399
Average number of points per batch           ...       63
Average number of grid points per atom       ...     4821

--------------------
COSX GRID GENERATION
--------------------

GRIDX 1
-------
General Integration Accuracy     IntAcc      ... 3.816
Radial Grid Type                 RadialGrid  ... OptM3 with GC (2021)
Angular Grid (max. ang.)         AngularGrid ... 1 (Lebedev-50)
Angular grid pruning method      GridPruning ... 4 (adaptive)
Weight generation scheme         WeightScheme... mBecke (2022)
Basis function cutoff            BFCut       ... 1.0000e-11
Integration weight cutoff        WCut        ... 1.0000e-14
Partially contracted basis set               ... on
Rotationally invariant grid construction     ... off
Angular grids for H and He will be reduced by one unit

Total number of grid points                  ...    35354
[...]
  37 H     1.0000    0     1.008    4.329816   -3.058544   -8.401302
  38 H     1.0000    0     1.008   -8.399611    1.505076    4.236409
  39 H     1.0000    0     1.008   -6.720561   -0.672392    7.874280
  40 O     8.0000    0    15.999   -4.128587    2.197258    8.431553
  41 C     6.0000    0    12.011   -6.691655    1.372577    8.066227
  42 C     6.0000    0    12.011   -7.480628    2.697962    5.631788
  43 C     6.0000    0    12.011   -3.315076    3.389926    6.355632
  44 O     8.0000    0    15.999   -1.218471    4.157406    6.033064
  45 O     8.0000    0    15.999   -5.199911    3.620278    4.632677
  46 F     9.0000    0    18.998   -9.047043    4.707266    6.128865
  47 H     1.0000    0     1.008   -7.823736    1.991745    9.665161
  48 H     1.0000    0     1.008    3.683899    9.119491   -1.218366
  49 H     1.0000    0     1.008    4.432455    6.058684    0.039885
  50 C     6.0000    0    12.011    2.981706    7.228478   -0.829061
  51 F     9.0000    0    18.998   -0.519377    9.646547    0.681075
  52 C     6.0000    0    12.011    0.570046    7.280374    0.745039
  53 H     1.0000    0     1.008    0.758244    6.716723    2.709512
  54 O     8.0000    0    15.999    2.192413    6.077516   -3.158833
  55 O     8.0000    0    15.999   -1.031949    5.581416   -0.509541
  56 C     6.0000    0    12.011   -0.108488    5.044358   -2.852243
  57 O     8.0000    0    15.999   -1.201223    3.807078   -4.381865

--------------------------------
INTERNAL COORDINATES (ANGSTROEM)
--------------------------------
 O      0   0   0     0.000000000000     0.00000000     0.00000000
 O      1   0   0     6.407829116138     0.00000000     0.00000000
 C      1   2   0     2.447198232783    61.27884157     0.00000000
 C      3   1   2     1.480455521477    95.68437737     0.28800218
 C      2   1   3     2.427280772350    49.70141092   333.51286024
 C      5   2   1     1.388422248639   146.82019924    17.76904787
 C      3   1   2     2.449551315832   116.73066870   180.08230651
 C      7   3   1     1.388135946108    28.55639404   182.81205532
 C      1   2   3     1.362237616398    89.61991462   358.26535620
 C      4   3   1     1.396971943600   122.13591243   316.16267430
 C      2   1   3     1.375519613036    24.69145284     0.17027989
 C      5   2   1     1.510037638326    92.59754023   201.13619073
 C      7   3   1     1.513907821967   149.25733039   183.25832100
 C      7   3   1     1.392844797956    89.23951700     3.80068267
 C     10   4   3     1.386224496413   120.76185353   182.41180412
 C     14   7   3     1.385589792403   120.78083077   358.80265883
 C     12   5   2     1.504245390261   112.90754026   299.93206101
 C     13   7   3     1.500386652456   112.88494655    43.74313518
 C     17  12   5     1.329822599712   125.11056895   122.45332803
 C     18  13   7     1.326624784518   124.65778449   238.74142198
 H      6   5   2     1.081470864045   118.15437933   183.84965636
 H      8   7   3     1.082060047950   118.55229655   180.52288345
 H     10   4   3     1.081274538338   119.93640731     1.05367463
 H     12   5   2     1.095312158959   110.68295012    62.51699408
 H     12   5   2     1.091703857706   108.21984855   179.24176277
 H     13   7   3     1.095000221365   110.09679610   281.24219677
 H     13   7   3     1.094776389525   108.29955273   165.18766189
 H     14   7   3     1.083739452711   119.82776449   179.63951469
 H     15  10   4     1.082074084294   120.76556751   178.87530268
 H     16  14   7     1.082286476826   121.13385526   181.86993480
 H     17  12   5     1.086680852902   115.45890413   303.51461878
 H     18  13   7     1.085978525808   115.78301703    56.81938136
 H      1   2   3     0.970501071363    34.40284334   130.21387993
 H      2   1   3     0.970520094526   133.10167625   340.51961177
 H     19  17  12     1.082231437184   121.74284686   180.05924598
 H     19  17  12     1.085523879803   121.36790604     1.72130337
 H     20  18  13     1.082486264524   121.52801875   179.25938014
 H     20  18  13     1.084984204340   121.42816455   359.25497364
 H     24  12   5     2.478308228664   129.04294648   347.14709731
 H     39  24  12     2.413110546404   123.22238544   335.04558482
 O     40  39  24     2.067435618246    90.42057118   110.90993331
 C     40  39  24     1.087014811387    66.69415284   145.41764840
 C     39  24  12     1.086372266163   141.17596952    64.74512751
 C     41  40  39     1.338065434983   116.28217186   328.55929737
 O     44  41  40     1.193740575887   125.23165295   216.24536392
 O     44  41  40     1.356825361894   110.94976954    36.18051204
 F     43  39  24     1.373624819860   108.04778821   116.08975423
 H     42  40  39     1.087271152855   111.40554028   119.29958709
 H     16  14   7     4.305725110784    84.33395411   272.13514821
 H     49  16  14     1.795468827909     9.41793396    95.79472713
 C     49  16  14     1.087142074867    43.78980273    92.73876945
 F     51  49  16     2.389230621152    80.52915128   135.95231148
 C     52  51  49     1.378880663756    36.64742253   196.12757808
 H     53  52  51     1.086074089111   108.13281559   128.31144321
 O     51  49  16     1.437135851275   109.07907450   240.53818303
 O     53  52  51     1.402750552067   108.52475252   246.90705613
 C     55  51  49     1.344522419552   109.39063661   227.85636762
 O     57  55  51     1.190904569069   125.53897283   185.35615873

---------------------------
INTERNAL COORDINATES (A.U.)
---------------------------
 O      0   0   0     0.000000000000     0.00000000     0.00000000
 O      1   0   0    12.109042142467     0.00000000     0.00000000
 C      1   2   0     4.624534455376    61.27884157     0.00000000
 C      3   1   2     2.797655489043    95.68437737     0.28800218
 C      2   1   3     4.586895909875    49.70141092   333.51286024
 C      5   2   1     2.623737808171   146.82019924    17.76904787
 C      3   1   2     4.628981137909   116.73066870   180.08230651
 C      7   3   1     2.623196774796    28.55639404   182.81205532
 C      1   2   3     2.574256024318    89.61991462   358.26535620
 C      4   3   1     2.639894390175   122.13591243   316.16267430
 C      2   1   3     2.599355360476    24.69145284     0.17027989
 C      5   2   1     2.853557588349    92.59754023   201.13619073
 C      7   3   1     2.860871175519   149.25733039   183.25832100
 C      7   3   1     2.632095215194    89.23951700     3.80068267
 C     10   4   3     2.619584658353   120.76185353   182.41180412
 C     14   7   3     2.618385241599   120.78083077   358.80265883
 C     12   5   2     2.842611825807   112.90754026   299.93206101
 C     13   7   3     2.835319868132   112.88494655    43.74313518
 C     17  12   5     2.513000520155   125.11056895   122.45332803
 C     18  13   7     2.506957525212   124.65778449   238.74142198
 H      6   5   2     2.043683754861   118.15437933   183.84965636
 H      8   7   3     2.044797151083   118.55229655   180.52288345
 H     10   4   3     2.043312753040   119.93640731     1.05367463
 H     12   5   2     2.069840011587   110.68295012    62.51699408
 H     12   5   2     2.063021310410   108.21984855   179.24176277
 H     13   7   3     2.069250534963   110.09679610   281.24219677
 H     13   7   3     2.068827554085   108.29955273   165.18766189
 H     14   7   3     2.047970766149   119.82776449   179.63951469
 H     15  10   4     2.044823675929   120.76556751   178.87530268
 H     16  14   7     2.045225039648   121.13385526   181.86993480
 H     17  12   5     2.053529206961   115.45890413   303.51461878
 H     18  13   7     2.052202001097   115.78301703    56.81938136
 H      1   2   3     1.833981237554    34.40284334   130.21387993
 H      2   1   3     1.834017186122   133.10167625   340.51961177
 H     19  17  12     2.045121029798   121.74284686   180.05924598
 H     19  17  12     2.051342844659   121.36790604     1.72130337
 H     20  18  13     2.045602583681   121.52801875   179.25938014
 H     20  18  13     2.050323005833   121.42816455   359.25497364
 H     24  12   5     4.683323827618   129.04294648   347.14709731
 H     39  24  12     4.560118063580   123.22238544   335.04558482
 O     40  39  24     3.906887117999    90.42057118   110.90993331
 C     40  39  24     2.054160297037    66.69415284   145.41764840
 C     39  24  12     2.052946062535   141.17596952    64.74512751
 C     41  40  39     2.528577221384   116.28217186   328.55929737
 O     44  41  40     2.255842763375   125.23165295   216.24536392
 O     44  41  40     2.564028345538   110.94976954    36.18051204
 F     43  39  24     2.595774720292   108.04778821   116.08975423
 H     42  40  39     2.054644712208   111.40554028   119.29958709
 H     16  14   7     8.136641267330    84.33395411   272.13514821
 H     49  16  14     3.392944366741     9.41793396    95.79472713
 C     49  16  14     2.054400790161    43.78980273    92.73876945
 F     51  49  16     4.514991544757    80.52915128   135.95231148
 C     52  51  49     2.605706825859    36.64742253   196.12757808
 H     53  52  51     2.052382589567   108.13281559   128.31144321
 O     51  49  16     2.715793176150   109.07907450   240.53818303
 O     53  52  51     2.650814377613   108.52475252   246.90705613
 C     55  51  49     2.540779153870   109.39063661   227.85636762
 O     57  55  51     2.250483487177   125.53897283   185.35615873

--------------------------------------------------------------------------
WARNING: There was an error initializing an OpenFabrics device.

  Local host:   ga00
  Local device: mlx5_0
--------------------------------------------------------------------------


           ************************************************************
           *        Program running with 30 parallel MPI-processes    *
           *              working on a common directory               *
           ************************************************************
------------------------------------------------------------------------------
                   ___                                                        
                  /   \      - P O W E R E D   B Y -                         
                 /     \                                                     
                 |  |  |   _    _      __       _____    __    __             
                 |  |  |  | |  | |    /  \     |  _  \  |  |  /  |          
                  \  \/   | |  | |   /    \    | | | |  |  | /  /          
                 / \  \   | |__| |  /  /\  \   | |_| |  |  |/  /          
                |  |  |   |  __  | /  /__\  \  |    /   |      \           
                |  |  |   | |  | | |   __   |  |    \   |  |\   \          
                \     /   | |  | | |  |  |  |  | |\  \  |  | \   \       
                 \___/    |_|  |_| |__|  |__|  |_| \__\ |__|  \__/        
                                                                              
                      - O R C A' S   B I G   F R I E N D -                    
                                      &                                       
                       - I N T E G R A L  F E E D E R -                       
                                                                              
 v1 FN, 2020, v2 2021, v3 2022-2024                                           
------------------------------------------------------------------------------


----------------------
SHARK INTEGRAL PACKAGE
----------------------

Number of atoms                             ...     58
Number of basis functions                   ...   1198
Number of shells                            ...    470
Maximum angular momentum                    ...      3
Integral batch strategy                     ... SHARK/LIBINT Hybrid
RI-J (if used) integral strategy            ... SPLIT-RIJ (Revised 2003 algorithm where possible)
Printlevel                                  ...      1
Contraction scheme used                     ... SEGMENTED contraction
Prescreening option                         ... SCHWARTZ
   Thresh                                   ... 2.500e-11
   Tcut                                     ... 2.500e-12
   Tpresel                                  ... 2.500e-12 
Coulomb Range Separation                    ... NOT USED
Exchange Range Separation                   ... NOT USED
Multipole approximations                    ... NOT USED
Finite Nucleus Model                        ... NOT USED
CABS basis                                  ... NOT available
Auxiliary Coulomb fitting basis             ... AVAILABLE
   # of basis functions in Aux-J            ...   1930
   # of shells in Aux-J                     ...    630
   Maximum angular momentum in Aux-J        ...      4
Auxiliary J/K fitting basis                 ... NOT available
Auxiliary Correlation fitting basis         ... NOT available
Auxiliary 'external' fitting basis          ... NOT available

Checking pre-screening integrals            ... done (  0.0 sec) Dimension = 470
Check shell pair data                       ... done (  0.0 sec)
Shell pair information
Shell pair cut-off parameter TPreSel        ...   2.5e-12
Total number of shell pairs                 ...    110685
Shell pairs after pre-screening             ...     69387
Total number of primitive shell pairs       ...    340720
Primitive shell pairs kept                  ...    134381
          la=0 lb=0:  17827 shell pairs
          la=1 lb=0:  20311 shell pairs
          la=1 lb=1:   5820 shell pairs
          la=2 lb=0:   9674 shell pairs
          la=2 lb=1:   5714 shell pairs
          la=2 lb=2:   1379 shell pairs
          la=3 lb=0:   4435 shell pairs
          la=3 lb=1:   2703 shell pairs
          la=3 lb=2:   1226 shell pairs
          la=3 lb=3:    298 shell pairs

Calculating one electron integrals          ... done (  0.1 sec)
Calculating RI/J V-Matrix + Cholesky decomp.... done (  0.2 sec)
Calculating Nuclear repulsion               ... done (  0.0 sec) ENN=   3891.263532376211 Eh

Diagonalization of the overlap matrix:
Smallest eigenvalue                        ... 4.354e-06
Time for diagonalization                   ...    0.167 sec
Threshold for overlap eigenvalues          ... 1.000e-07
Number of eigenvalues below threshold      ... 0
Time for construction of square roots      ...    0.095 sec
Total time needed                          ...    0.273 sec

-------------------
DFT GRID GENERATION
-------------------

General Integration Accuracy     IntAcc      ... 4.388
Radial Grid Type                 RadialGrid  ... OptM3 with GC (2021)
Angular Grid (max. ang.)         AngularGrid ... 4 (Lebedev-302)
Angular grid pruning method      GridPruning ... 4 (adaptive)
Weight generation scheme         WeightScheme... mBecke (2022)
Basis function cutoff            BFCut       ... 1.0000e-11
Integration weight cutoff        WCut        ... 1.0000e-14
Partially contracted basis set               ... off
Rotationally invariant grid construction     ... off
Angular grids for H and He will be reduced by one unit

Total number of grid points                  ...   278466
Total number of batches                      ...     4383
Average number of points per batch           ...       63
Average number of grid points per atom       ...     4801

--------------------
COSX GRID GENERATION
--------------------

GRIDX 1
-------
General Integration Accuracy     IntAcc      ... 3.816
Radial Grid Type                 RadialGrid  ... OptM3 with GC (2021)
Angular Grid (max. ang.)         AngularGrid ... 1 (Lebedev-50)
Angular grid pruning method      GridPruning ... 4 (adaptive)
Weight generation scheme         WeightScheme... mBecke (2022)
Basis function cutoff            BFCut       ... 1.0000e-11
Integration weight cutoff        WCut        ... 1.0000e-14
Partially contracted basis set               ... on
Rotationally invariant grid construction     ... off
Angular grids for H and He will be reduced by one unit

Total number of grid points                  ...    35210
Total number of batches                      ...      310
Average number of points per batch           ...      113
Average number of grid points per atom       ...      607
UseSFitting                                  ... on

GRIDX 2
-------
General Integration Accuracy     IntAcc      ... 4.020
Radial Grid Type                 RadialGrid  ... OptM3 with GC (2021)
Angular Grid (max. ang.)         AngularGrid ... 2 (Lebedev-110)
Angular grid pruning method      GridPruning ... 4 (adaptive)
Weight generation scheme         WeightScheme... mBecke (2022)
Basis function cutoff            BFCut       ... 1.0000e-11
Integration weight cutoff        WCut        ... 1.0000e-14
Partially contracted basis set               ... on
Rotationally invariant grid construction     ... off
Angular grids for H and He will be reduced by one unit

Total number of grid points                  ...    76453
Total number of batches                      ...      630
Average number of points per batch           ...      121
Average number of grid points per atom       ...     1318
UseSFitting                                  ... on

GRIDX 3
-------
General Integration Accuracy     IntAcc      ... 4.338
Radial Grid Type                 RadialGrid  ... OptM3 with GC (2021)
Angular Grid (max. ang.)         AngularGrid ... 3 (Lebedev-194)
Angular grid pruning method      GridPruning ... 4 (adaptive)
Weight generation scheme         WeightScheme... mBecke (2022)
Basis function cutoff            BFCut       ... 1.0000e-11
Integration weight cutoff        WCut        ... 1.0000e-14
Partially contracted basis set               ... on
Rotationally invariant grid construction     ... off
Angular grids for H and He will be reduced by one unit

Total number of grid points                  ...   166791
Total number of batches                      ...     1331
Average number of points per batch           ...      125
Average number of grid points per atom       ...     2876
UseSFitting                                  ... on
[ga00:3801812] 29 more processes have sent help message help-mpi-btl-openib.txt / error in device init
[ga00:3801812] Set MCA parameter "orte_base_help_aggregate" to 0 to see all help / error messages
Initializing property integral containers    ... done (  0.0 sec)

SHARK setup successfully completed in   4.5 seconds

Maximum memory used throughout the entire STARTUP-calculation: 151.8 MB
--------------------------------------------------------------------------
WARNING: There was an error initializing an OpenFabrics device.

  Local host:   ga00
  Local device: mlx5_0
--------------------------------------------------------------------------
[ga00:3802008] *** Process received signal ***
[ga00:3802008] Signal: Segmentation fault (11)
[ga00:3802008] Signal code: Address not mapped (1)
[ga00:3802008] Failing at address: (nil)
[ga00:3802008] [ 0] /usr/lib64/libpthread.so.0(+0x12cf0)[0x14c7bf5cfcf0]
[ga00:3802008] [ 1] /usr/lib64/libc.so.6(+0xc84d2)[0x14c7bf2bf4d2]
[ga00:3802008] [ 2] /home/yongsang/.openmpi/lib/libopen-rte.so.40(+0x2b27d)[0x14c7c06ba27d]
[ga00:3802008] [ 3] /home/yongsang/.openmpi/lib/libopen-rte.so.40(orte_show_help_recv+0x147)[0x14c7c06ba6f7]
[ga00:3802008] [ 4] /home/yongsang/.openmpi/lib/libopen-rte.so.40(orte_rml_base_process_msg+0x39b)[0x14c7c071621b]
[ga00:3802008] [ 5] /home/yongsang/.openmpi/lib/libopen-pal.so.40(opal_libevent2022_event_base_loop+0x769)[0x14c7c04045b9]
[ga00:3802008] [ 6] mpirun[0x400f39]
[ga00:3802008] [ 7] /usr/lib64/libc.so.6(__libc_start_main+0xe5)[0x14c7bf231d85]
[ga00:3802008] [ 8] mpirun[0x400cde]
[ga00:3802008] *** End of error message ***

ORCA finished by error termination in GUESS
Calling Command: mpirun -np 30  /home/yongsang/orca_6_0_1_linux_x86-64_shared_openmpi416/orca_guess_mpi honokiol3_FEC2.gbw honokiol3_FEC2 
[file orca_tools/qcmsg.cpp, line 394]: 
  .... aborting the run

[file orca_tools/qcmsg.cpp, line 394]: 
  .... aborting the run

