
                                 *****************
                                 * O   R   C   A *
                                 *****************

                                            #,                                       
                                            ###                                      
                                            ####                                     
                                            #####                                    
                                            ######                                   
                                           ########,                                 
                                     ,,################,,,,,                         
                               ,,#################################,,                 
                          ,,##########################################,,             
                       ,#########################################, ''#####,          
                    ,#############################################,,   '####,        
                  ,##################################################,,,,####,       
                ,###########''''           ''''###############################       
              ,#####''   ,,,,##########,,,,          '''####'''          '####       
            ,##' ,,,,###########################,,,                        '##       
           ' ,,###''''                  '''############,,,                           
         ,,##''                                '''############,,,,        ,,,,,,###''
      ,#''                                            '''#######################'''  
     '                                                          ''''####''''         
             ,#######,   #######,   ,#######,      ##                                
            ,#'     '#,  ##    ##  ,#'     '#,    #''#        ,####,   ,####,        
            ##       ##  ##   ,#'  ##            #'  '#       #'       #'  '#        
            ##       ##  #######   ##           ,######,      #####,   #    #        
            '#,     ,#'  ##    ##  '#,     ,#' ,#      #,     #,   #   #,  ,#        
             '#######'   ##     ##  '#######'  #'      '#     '####' # '####'        



                #########################################################
                #                        -***-                          #
                #          Department of theory and spectroscopy        #
                #                                                       #
                #                      Frank Neese                      #
                #                                                       #
                #     Directorship, Architecture, Infrastructure        #
                #                    SHARK, DRIVERS                     #
                #        Core code/Algorithms in most modules           #
                #                                                       #
                #        Max Planck Institute fuer Kohlenforschung      #
                #                Kaiser Wilhelm Platz 1                 #
                #                 D-45470 Muelheim/Ruhr                 #
                #                      Germany                          #
                #                                                       #
                #                  All rights reserved                  #
                #                        -***-                          #
                #########################################################


                         Program Version 6.0.1  -  RELEASE   -


 With contributions from (in alphabetic order):
[Max-Planck-Institut fuer Kohlenforschung]                               
  Daniel Aravena         : Magnetic Suceptibility                        
  Michael Atanasov       : Ab Initio Ligand Field Theory (pilot matlab implementation)
  Alexander A. Auer      : GIAO ZORA, VPT2 properties, NMR spectrum      
  Ute Becker             : All parallelization in ORCA, NUMFREQ, NUMCALC 
  Giovanni Bistoni       : ED, misc. LED, open-shell LED, HFLD           
  Martin Brehm           : Molecular dynamics                            
  Dmytro Bykov           : pre 5.0 version of the SCF Hessian            
  Marcos Casanova-Páez   : Triplet and SCS-CIS(D). UHF-(DLPNO)-IP/EA/STEOM-CCSD. UHF-CVS-IP/STEOM-CCSD   
  Vijay G. Chilkuri      : MRCI spin determinant printing, contributions to CSF-ICE 
  Pauline Colinet        : FMM embedding                                 
  Dipayan Datta          : RHF DLPNO-CCSD density                        
  Achintya Kumar Dutta   : EOM-CC, STEOM-CC                              
  Nicolas Foglia         : Exact transition moments, OPA infrastructure, MCD improvements    
  Dmitry Ganyushin       : Spin-Orbit,Spin-Spin,Magnetic field MRCI      
  Miquel Garcia-Rates    : C-PCM and meta-GGA Hessian, CCSD/C-PCM, Gaussian charge scheme 
  Tiago L. C. Gouveia    : GS-ROHF, GS-ROCIS                             
  Yang Guo               : DLPNO-NEVPT2, F12-NEVPT2, CIM, IAO-localization        
  Andreas Hansen         : Spin unrestricted coupled pair/coupled cluster methods 
  Ingolf Harden          : AUTO-CI MPn and infrastructure                
  Benjamin Helmich-Paris : MC-RPA, TRAH-(SCF,CASSCF), AVAS, COSX integrals, SCF dyn. polar. 
  Lee Huntington         : MR-EOM, pCC                                   
  Robert Izsak           : Overlap fitted RIJCOSX, COSX-SCS-MP3, EOM     
  Riya Kayal             : Wick's Theorem for AUTO-CI, AUTO-CI UHF-CCSDT 
  Emily Kempfer          : AUTO-CI, RHF CISDT and CCSDT                  
  Christian Kollmar      : KDIIS, OOCD, Brueckner-CCSD(T), CCSD density, CASPT2, CASPT2-K, improved NEVPT2 
  Axel Koslowski         : Symmetry handling                             
  Simone Kossmann        : meta-GGA functionals, TD-DFT gradient, OOMP2, (MP2 Hessian; deprecated post 5.0) 
  Lucas Lang             : DCDCAS                                        
  Marvin Lechner         : AUTO-CI (C++ implementation), FIC-MRCC        
  Spencer Leger          : CASSCF response                               
  Dagmar Lenk            : GEPOL surface, SMD, ORCA-2-JSON               
  Dimitrios Liakos       : Extrapolation schemes; Compound Job, initial MDCI parallelization 
  Dimitrios Manganas     : Further ROCIS development; embedding schemes. LFT, Crystal Embedding 
  Dimitrios Pantazis     : SARC Basis sets                               
  Anastasios Papadopoulos: AUTO-CI, single reference methods and gradients 
  Taras Petrenko         : pre 6.0 DFT Hessian and TD-DFT gradient, (ASA, deprecated), ECA, 1-Electron XAS/XES, NRVS 
  Peter Pinski           : DLPNO-MP2, DLPNO-MP2 Gradient                 
  Christoph Reimann      : Effective Core Potentials                     
  Marius Retegan         : Local ZFS, SOC                                
  Christoph Riplinger    : Optimizer, TS searches, QM/MM, DLPNO-CCSD(T), (RO)-DLPNO pert. Triples 
  Michael Roemelt        : Original ROCIS implementation                 
  Masaaki Saitow         : Open-shell DLPNO-CCSD energy and density      
  Barbara Sandhoefer     : DKH picture change effects                    
  Kantharuban Sivalingam : CASSCF convergence/infrastructure, NEVPT2 and variants, FIC-MRCI 
  Bernardo de Souza      : ESD, SOC TD-DFT                               
  Georgi L. Stoychev     : AutoAux, RI-MP2 NMR, DLPNO-MP2 response, X2C  
  Van Anh Tran           : RI-MP2 g-tensors                              
  Willem Van den Heuvel  : Paramagnetic NMR                              
  Zikuan Wang            : NOTCH, Electric field optimization            
  Frank Wennmohs         : Technical directorship and infrastructure     
  Hang Xu                : AUTO-CI-Response properties                   
                                                                         
[FACCTs GmbH]                                                            
  Markus Bursch, Miquel Garcia-Rates, Christoph Riplinger, Bernardo de Souza, Georgi L. Stoychev 
                                                                 
  APM, Basis sets (HGBS, AHGBS, def-TZVP (Ac-Lr), def2-XVPD (La-Lu)), CI-OPT, improved COSX, DLPNO-Multilevel,           
  DOCKER, DRACO, updates on ESD, GOAT, IRC, LR-CPCM, MBIS, meta-GGA TD-DFT gradient, ML-optimized integration grids, 
  MM, NACMEs, nearIR, NEB, NEB-TS, NL-DFT gradient (VV10), 2- and 3-layer-ONIOM, interface openCOSMO-RS, QMMM,   
  Crystal-QMMM, SF, symmetry and pop. for TD-DFT, r2SCAN hybrids, SOLVATOR                                   
                                                                         
[Other institutions]                                                     
  V. Asgeirsson          : NEB                                           
  Christoph Bannwarth    : sTDA-DFT, sTD-DFT, PBEh-3c, B97-3c, D3        
  Sebastian Ehlert       : rSCAN, r2SCAN, r2SCAN-3c, D4, dhf basis sets  
  Marvin Friede          : D4 for Fr, Ra, Ac-Lr                          
  Lars Goerigk           : TD-DFT with DH, B97 family of functionals     
  Stefan Grimme          : VdW corrections, initial TS optimization, DFT functionals, gCP, sTDA/sTD-DF 
  Waldemar Hujo          : DFT-NL                                        
  H. Jonsson             : NEB                                           
  Holger Kruse           : gCP                                           
  Marcel Mueller         : wB97X-3c, vDZP basis set                      
  Hagen Neugebauer       : wr2SCAN                                       
  Tobias Risthaus        : range-separated hybrid DFT                    
  Lukas Wittmann         : regularized MP2, r2SCAN double-hybrids, wr2SCAN        
                                                                         
We gratefully acknowledge several colleagues who have allowed us to      
interface, adapt or use parts of their codes:                            
  Ed Valeev, F. Pavosevic, A. Kumar             : LibInt (2-el integral package), F12 methods 
  Garnet Chan, S. Sharma, J. Yang, R. Olivares  : DMRG                   
  Ulf Ekstrom                                   : XCFun DFT Library      
  Mihaly Kallay                                 : mrcc  (arbitrary order and MRCC methods)
  Frank Weinhold                                : gennbo (NPA and NBO analysis)           
  Simon Mueller                                 : openCOSMO-RS                            
  Christopher J. Cramer and Donald G. Truhlar   : smd solvation model                     
  S Lehtola, MJT Oliveira, MAL Marques          : LibXC Library                           
  Liviu Ungur et al                             : ANISO software                          


 Your calculation uses the libint2 library for the computation of 2-el integrals
 For citations please refer to: http://libint.valeyev.net

 Your ORCA version has been built with support for libXC version: 6.2.2
 For citations please refer to: https://libxc.gitlab.io

 This ORCA versions uses:
   CBLAS   interface :  Fast vector & matrix operations
   LAPACKE interface :  Fast linear algebra routines
   SCALAPACK package :  Parallel linear algebra routines
   Shared memory     :  Shared parallel matrices
   BLAS/LAPACK       :  OpenBLAS 0.3.27  USE64BITINT DYNAMIC_ARCH NO_AFFINITY SkylakeX SINGLE_THREADED
        Core in use  :  SkylakeX
   Copyright (c) 2011-2014, The OpenBLAS Project


NOTE: MaxCore=5000 MB was set to SCF,MP2,MDCI,CIPSI,MRCI and CIS
      => If you want to overwrite this, your respective input block should be placed after the MaxCore statement
Warning: RI is on but no J-basis has been assigned. Assigning Def2/J (nothing to worry about!)
================================================================================

----- Orbital basis set information -----
Your calculation utilizes the basis: def2-TZVP
   F. Weigend and R. Ahlrichs, Phys. Chem. Chem. Phys. 7, 3297 (2005).

----- AuxJ basis set information -----
Your calculation utilizes the auxiliary basis: def2/J
   F. Weigend, Phys. Chem. Chem. Phys. 8, 1057 (2006).

================================================================================
                                        WARNINGS
                       Please study these warnings very carefully!
================================================================================


WARNING: Geometry Optimization
  ===> : Switching off AutoStart
         For restart on a previous wavefunction, please use MOREAD

================================================================================
                                       INPUT FILE
================================================================================
NAME = EMC.inp
|  1> ! Opt B3LYP def2-TZVP TightSCF TightOpt
|  2> 
|  3> %maxcore 5000
|  4> 
|  5> %pal
|  6> nprocs 20
|  7> end
|  8> 
|  9> * xyz 0 1
| 10> O          0.68030       -0.45370        0.00050
| 11> O         -1.49990       -0.77980        0.00030
| 12> O         -0.70930        1.38540        0.00010
| 13> C          1.82450        0.40650       -0.00030
| 14> C          3.07860       -0.44140       -0.00030
| 15> C         -0.52830        0.17520        0.00060
| 16> C         -2.84580       -0.29220       -0.00070
| 17> H          1.80520        1.03900       -0.89490
| 18> H          1.80570        1.03980        0.89370
| 19> H          3.97460        0.18570       -0.00090
| 20> H          3.10340       -1.09290        0.87950
| 21> H          3.10290       -1.09360       -0.87950
| 22> H         -3.03430        0.30100        0.89920
| 23> H         -3.51930       -1.15330       -0.00080
| 24> H         -3.03320        0.30050       -0.90120
| 25> *
| 26> 
| 27>                          ****END OF INPUT****
================================================================================

                       *****************************
                       * Geometry Optimization Run *
                       *****************************

Geometry optimization settings:
Update method            Update   .... BFGS
Choice of coordinates    CoordSys .... (2022) Redundant Internals
Initial Hessian          InHess   .... Almloef's Model
Max. no of cycles        MaxIter  .... 50

Convergence Tolerances:
Energy Change            TolE     ....  1.0000e-06 Eh
Max. Gradient            TolMAXG  ....  1.0000e-04 Eh/bohr
RMS Gradient             TolRMSG  ....  3.0000e-05 Eh/bohr
Max. Displacement        TolMAXD  ....  1.0000e-03 bohr
RMS Displacement         TolRMSD  ....  6.0000e-04 bohr
Strict Convergence                .... False

------------------------------------------------------------------------------
                        ORCA OPTIMIZATION COORDINATE SETUP
------------------------------------------------------------------------------

The optimization will be done in redundant internal coordinates (2022)
Making redundant internal coordinates   ...  (2022 redundants) done
Evaluating the initial hessian          ...  (Almloef) done
Evaluating the coordinates              ...  done
Calculating the B-matrix                .... done
Calculating the G-matrix                .... done
Diagonalizing the G-matrix              .... done
Small eigenvalue found = 1.643e-02
The first mode is                       ....   14
The number of degrees of freedom        ....   39

    -----------------------------------------------------------------
                    Redundant Internal Coordinates


    -----------------------------------------------------------------
         Definition                    Initial Value    Approx d2E/dq
    -----------------------------------------------------------------
      1. B(C   3,O   0)                  1.4315         0.480502   
      2. B(C   4,C   3)                  1.5138         0.396429   
      3. B(C   5,O   0)                  1.3624         0.619232   
      4. B(C   5,O   2)                  1.2237         1.031002   
      5. B(C   5,O   1)                  1.3624         0.619397   
      6. B(C   6,O   1)                  1.4315         0.480463   
      7. B(H   7,C   3)                  1.0958         0.352532   
      8. B(H   8,C   3)                  1.0957         0.352579   
      9. B(H   9,C   4)                  1.0937         0.355303   
     10. B(H  10,C   4)                  1.0950         0.353492   
     11. B(H  11,C   4)                  1.0950         0.353592   
     12. B(H  12,C   6)                  1.0942         0.354607   
     13. B(H  13,C   6)                  1.0932         0.355886   
     14. B(H  14,C   6)                  1.0942         0.354564   
     15. A(C   3,O   0,C   5)          115.5741         0.409294   
     16. A(C   5,O   1,C   6)          115.5789         0.409307   
     17. A(C   4,C   3,H   8)          109.7508         0.326366   
     18. A(O   0,C   3,H   8)          109.4593         0.334887   
     19. A(C   4,C   3,H   7)          109.7483         0.326359   
     20. A(H   7,C   3,H   8)          109.4011         0.288914   
     21. A(O   0,C   3,H   7)          109.4652         0.334880   
     22. A(O   0,C   3,C   4)          109.0017         0.380943   
     23. A(H   9,C   4,H  10)          108.8465         0.289386   
     24. A(C   3,C   4,H  10)          110.6094         0.326505   
     25. A(C   3,C   4,H   9)          110.9495         0.326780   
     26. A(H  10,C   4,H  11)          106.8724         0.289167   
     27. A(H   9,C   4,H  11)          108.8393         0.289399   
     28. A(C   3,C   4,H  11)          110.6097         0.326520   
     29. A(O   0,C   5,O   1)          108.0033         0.428241   
     30. A(O   1,C   5,O   2)          126.0001         0.469733   
     31. A(O   0,C   5,O   2)          125.9966         0.469710   
     32. A(H  12,C   6,H  14)          110.7122         0.289434   
     33. A(O   1,C   6,H  14)          110.2490         0.335195   
     34. A(H  12,C   6,H  13)          108.7219         0.289603   
     35. A(O   1,C   6,H  13)          108.1156         0.335403   
     36. A(H  13,C   6,H  14)          108.7279         0.289598   
     37. A(O   1,C   6,H  12)          110.2466         0.335202   
     38. D(C   4,C   3,O   0,C   5)    179.9996         0.018214   
     39. D(H   8,C   3,O   0,C   5)     59.9515         0.018214   
     40. D(H   7,C   3,O   0,C   5)    -59.9517         0.018214   
     41. D(H   9,C   4,C   3,H   8)    -60.1318         0.012477   
     42. D(H   9,C   4,C   3,H   7)     60.1265         0.012477   
     43. D(H  10,C   4,C   3,O   0)    -59.1007         0.012477   
     44. D(H  10,C   4,C   3,H   8)     60.7673         0.012477   
     45. D(H  10,C   4,C   3,H   7)   -178.9744         0.012477   
     46. D(H   9,C   4,C   3,O   0)   -179.9998         0.012477   
     47. D(O   2,C   5,O   1,C   6)      0.0002         0.028144   
     48. D(O   0,C   5,O   1,C   6)   -179.9531         0.028144   
     49. D(O   2,C   5,O   0,C   3)     -0.0015         0.028128   
     50. D(O   1,C   5,O   0,C   3)    179.9519         0.028128   
     51. D(H  13,C   6,O   1,C   5)   -179.9976         0.018211   
     52. D(H  12,C   6,O   1,C   5)    -61.2712         0.018211   
     53. D(H  14,C   6,O   1,C   5)     61.2674         0.018211   
    -----------------------------------------------------------------

Number of atoms                         .... 15
Number of degrees of freedom            .... 53


         *************************************************************
         *                GEOMETRY OPTIMIZATION CYCLE   1            *
         *************************************************************
---------------------------------
CARTESIAN COORDINATES (ANGSTROEM)
---------------------------------
  O      0.680300   -0.453700    0.000500
  O     -1.499900   -0.779800    0.000300
  O     -0.709300    1.385400    0.000100
  C      1.824500    0.406500   -0.000300
  C      3.078600   -0.441400   -0.000300
  C     -0.528300    0.175200    0.000600
  C     -2.845800   -0.292200   -0.000700
  H      1.805200    1.039000   -0.894900
  H      1.805700    1.039800    0.893700
  H      3.974600    0.185700   -0.000900
  H      3.103400   -1.092900    0.879500
  H      3.102900   -1.093600   -0.879500
  H     -3.034300    0.301000    0.899200
  H     -3.519300   -1.153300   -0.000800
  H     -3.033200    0.300500   -0.901200

----------------------------
CARTESIAN COORDINATES (A.U.)
----------------------------
  NO LB      ZA    FRAG     MASS         X           Y           Z
   0 O     8.0000    0    15.999    1.285581   -0.857369    0.000945
   1 O     8.0000    0    15.999   -2.834400   -1.473608    0.000567
   2 O     8.0000    0    15.999   -1.340383    2.618027    0.000189
   3 C     6.0000    0    12.011    3.447805    0.768174   -0.000567
   4 C     6.0000    0    12.011    5.817711   -0.834125   -0.000567
   5 C     6.0000    0    12.011   -0.998342    0.331080    0.001134
   6 C     6.0000    0    12.011   -5.377783   -0.552178   -0.001323
   7 H     1.0000    0     1.008    3.411334    1.963425   -1.691116
   8 H     1.0000    0     1.008    3.412278    1.964937    1.688848
   9 H     1.0000    0     1.008    7.510905    0.350922   -0.001701
  10 H     1.0000    0     1.008    5.864576   -2.065282    1.662014
  11 H     1.0000    0     1.008    5.863631   -2.066605   -1.662014
  12 H     1.0000    0     1.008   -5.733996    0.568808    1.699242
  13 H     1.0000    0     1.008   -6.650513   -2.179421   -0.001512
  14 H     1.0000    0     1.008   -5.731917    0.567863   -1.703021

--------------------------------
INTERNAL COORDINATES (ANGSTROEM)
--------------------------------
 O      0   0   0     0.000000000000     0.00000000     0.00000000
 O      1   0   0     2.204453059151     0.00000000     0.00000000
 O      2   1   0     2.305024824161    61.43400541     0.00000000
 C      1   2   3     1.431481162992   151.57129888   359.93162759
 C      4   1   2     1.513836589596   109.00173794   180.05904218
 C      3   2   1     1.223660610627    28.56536265   359.96879481
 C      2   1   3     1.431503255323   151.57840457     0.06599800
 H      4   1   2     1.095781866979   109.46523189   300.10766261
 H      4   1   2     1.095745558969   109.45929276    60.01087239
 H      5   4   1     1.093650204590   110.94954896   180.00020713
 H      5   4   1     1.095041245799   110.60944835   300.89927902
 H      5   4   1     1.094964825919   110.60971429    59.10997812
 H      7   2   1     1.094183942489   110.24663817   298.67094769
 H      7   2   1     1.093204221543   108.11563743   179.94454349
 H      7   2   1     1.094217665732   110.24895420    61.20955244

---------------------------
INTERNAL COORDINATES (A.U.)
---------------------------
 O      0   0   0     0.000000000000     0.00000000     0.00000000
 O      1   0   0     4.165812556880     0.00000000     0.00000000
 O      2   1   0     4.355865649555    61.43400541     0.00000000
 C      1   2   3     2.705107363921   151.57129888   359.93162759
 C      4   1   2     2.860736565846   109.00173794   180.05904218
 C      3   2   1     2.312383434952    28.56536265   359.96879481
 C      2   1   3     2.705149112377   151.57840457     0.06599800
 H      4   1   2     2.070727631107   109.46523189   300.10766261
 H      4   1   2     2.070659018912   109.45929276    60.01087239
 H      5   4   1     2.066699372982   110.94954896   180.00020713
 H      5   4   1     2.069328059907   110.60944835   300.89927902
 H      5   4   1     2.069183647264   110.60971429    59.10997812
 H      7   2   1     2.067707991438   110.24663817   298.67094769
 H      7   2   1     2.065856587163   108.11563743   179.94454349
 H      7   2   1     2.067771719132   110.24895420    61.20955244

---------------------
BASIS SET INFORMATION
---------------------
There are 3 groups of distinct atoms

 Group   1 Type O   : 11s6p2d1f contracted to 5s3p2d1f pattern {62111/411/11/1}
 Group   2 Type C   : 11s6p2d1f contracted to 5s3p2d1f pattern {62111/411/11/1}
 Group   3 Type H   : 5s1p contracted to 3s1p pattern {311/1}

Atom   0O    basis set group =>   1
Atom   1O    basis set group =>   1
Atom   2O    basis set group =>   1
Atom   3C    basis set group =>   2
Atom   4C    basis set group =>   2
Atom   5C    basis set group =>   2
Atom   6C    basis set group =>   2
Atom   7H    basis set group =>   3
Atom   8H    basis set group =>   3
Atom   9H    basis set group =>   3
Atom  10H    basis set group =>   3
Atom  11H    basis set group =>   3
Atom  12H    basis set group =>   3
Atom  13H    basis set group =>   3
Atom  14H    basis set group =>   3
---------------------------------
AUXILIARY/J BASIS SET INFORMATION
---------------------------------
There are 3 groups of distinct atoms

 Group   1 Type O   : 12s5p4d2f1g contracted to 6s4p3d1f1g pattern {711111/2111/211/2/1}
 Group   2 Type C   : 12s5p4d2f1g contracted to 6s4p3d1f1g pattern {711111/2111/211/2/1}
 Group   3 Type H   : 5s2p1d contracted to 3s1p1d pattern {311/2/1}

Atom   0O    basis set group =>   1
Atom   1O    basis set group =>   1
Atom   2O    basis set group =>   1
Atom   3C    basis set group =>   2
Atom   4C    basis set group =>   2
Atom   5C    basis set group =>   2
Atom   6C    basis set group =>   2
Atom   7H    basis set group =>   3
Atom   8H    basis set group =>   3
Atom   9H    basis set group =>   3
Atom  10H    basis set group =>   3
Atom  11H    basis set group =>   3
Atom  12H    basis set group =>   3
Atom  13H    basis set group =>   3
Atom  14H    basis set group =>   3
--------------------------------------------------------------------------
By default, for Open MPI 4.0 and later, infiniband ports on a device
are not used by default.  The intent is to use UCX for these devices.
You can override this policy by setting the btl_openib_allow_ib MCA parameter
to true.

  Local host:              psid03
  Local adapter:           mlx5_0
  Local port:              1

--------------------------------------------------------------------------
--------------------------------------------------------------------------
WARNING: There was an error initializing an OpenFabrics device.

  Local host:   psid03
  Local device: mlx5_0
--------------------------------------------------------------------------


           ************************************************************
           *        Program running with 20 parallel MPI-processes    *
           *              working on a common directory               *
           ************************************************************
------------------------------------------------------------------------------
                             ORCA STARTUP CALCULATIONS
                           -- RI-GTO INTEGRALS CHOSEN --
------------------------------------------------------------------------------
------------------------------------------------------------------------------
                   ___                                                        
                  /   \      - P O W E R E D   B Y -                         
                 /     \                                                     
                 |  |  |   _    _      __       _____    __    __             
                 |  |  |  | |  | |    /  \     |  _  \  |  |  /  |          
                  \  \/   | |  | |   /    \    | | | |  |  | /  /          
                 / \  \   | |__| |  /  /\  \   | |_| |  |  |/  /          
                |  |  |   |  __  | /  /__\  \  |    /   |      \           
                |  |  |   | |  | | |   __   |  |    \   |  |\   \          
                \     /   | |  | | |  |  |  |  | |\  \  |  | \   \       
                 \___/    |_|  |_| |__|  |__|  |_| \__\ |__|  \__/        
                                                                              
                      - O R C A' S   B I G   F R I E N D -                    
                                      &                                       
                       - I N T E G R A L  F E E D E R -                       
                                                                              
 v1 FN, 2020, v2 2021, v3 2022-2024                                           
------------------------------------------------------------------------------


----------------------
SHARK INTEGRAL PACKAGE
----------------------

Number of atoms                             ...     15
Number of basis functions                   ...    265
Number of shells                            ...    109
Maximum angular momentum                    ...      3
Integral batch strategy                     ... SHARK/LIBINT Hybrid
RI-J (if used) integral strategy            ... SPLIT-RIJ (Revised 2003 algorithm where possible)
Printlevel                                  ...      1
Contraction scheme used                     ... SEGMENTED contraction
Prescreening option                         ... SCHWARTZ
   Thresh                                   ... 2.500e-11
   Tcut                                     ... 2.500e-12
   Tpresel                                  ... 2.500e-12 
Coulomb Range Separation                    ... NOT USED
Exchange Range Separation                   ... NOT USED
Multipole approximations                    ... NOT USED
Finite Nucleus Model                        ... NOT USED
CABS basis                                  ... NOT available
Auxiliary Coulomb fitting basis             ... AVAILABLE
   # of basis functions in Aux-J            ...    431
   # of shells in Aux-J                     ...    145
   Maximum angular momentum in Aux-J        ...      4
Auxiliary J/K fitting basis                 ... NOT available
Auxiliary Correlation fitting basis         ... NOT available
Auxiliary 'external' fitting basis          ... NOT available

Checking pre-screening integrals            ... done (  0.0 sec) Dimension = 109
Check shell pair data                       ... done (  0.0 sec)
Shell pair information
Shell pair cut-off parameter TPreSel        ...   2.5e-12
Total number of shell pairs                 ...      5995
Shell pairs after pre-screening             ...      5239
Total number of primitive shell pairs       ...     17944
Primitive shell pairs kept                  ...     11817
          la=0 lb=0:   1502 shell pairs
          la=1 lb=0:   1499 shell pairs
          la=1 lb=1:    395 shell pairs
          la=2 lb=0:    721 shell pairs
          la=2 lb=1:    372 shell pairs
          la=2 lb=2:    100 shell pairs
          la=3 lb=0:    354 shell pairs
          la=3 lb=1:    180 shell pairs
          la=3 lb=2:     90 shell pairs
          la=3 lb=3:     26 shell pairs

Calculating one electron integrals          ... done (  0.0 sec)
Calculating RI/J V-Matrix + Cholesky decomp.... done (  0.1 sec)
Calculating Nuclear repulsion               ... done (  0.0 sec) ENN=    316.737958484473 Eh

Diagonalization of the overlap matrix:
Smallest eigenvalue                        ... 4.500e-04
Time for diagonalization                   ...    0.007 sec
Threshold for overlap eigenvalues          ... 1.000e-07
Number of eigenvalues below threshold      ... 0
Time for construction of square roots      ...    0.004 sec
Total time needed                          ...    0.019 sec

-------------------
DFT GRID GENERATION
-------------------

General Integration Accuracy     IntAcc      ... 4.388
Radial Grid Type                 RadialGrid  ... OptM3 with GC (2021)
Angular Grid (max. ang.)         AngularGrid ... 4 (Lebedev-302)
Angular grid pruning method      GridPruning ... 4 (adaptive)
Weight generation scheme         WeightScheme... mBecke (2022)
Basis function cutoff            BFCut       ... 1.0000e-11
Integration weight cutoff        WCut        ... 1.0000e-14
Partially contracted basis set               ... off
Rotationally invariant grid construction     ... off
Angular grids for H and He will be reduced by one unit

Total number of grid points                  ...    68328
Total number of batches                      ...     1075
Average number of points per batch           ...       63
Average number of grid points per atom       ...     4555

--------------------
COSX GRID GENERATION
--------------------

GRIDX 1
-------
General Integration Accuracy     IntAcc      ... 3.816
Radial Grid Type                 RadialGrid  ... OptM3 with GC (2021)
Angular Grid (max. ang.)         AngularGrid ... 1 (Lebedev-50)
Angular grid pruning method      GridPruning ... 4 (adaptive)
Weight generation scheme         WeightScheme... mBecke (2022)
Basis function cutoff            BFCut       ... 1.0000e-11
Integration weight cutoff        WCut        ... 1.0000e-14
Partially contracted basis set               ... on
Rotationally invariant grid construction     ... off
Angular grids for H and He will be reduced by one unit

Total number of grid points                  ...     8750
Total number of batches                      ...       79
Average number of points per batch           ...      110
Average number of grid points per atom       ...      583
UseSFitting                                  ... on

GRIDX 2
-------
General Integration Accuracy     IntAcc      ... 4.020
Radial Grid Type                 RadialGrid  ... OptM3 with GC (2021)
Angular Grid (max. ang.)         AngularGrid ... 2 (Lebedev-110)
Angular grid pruning method      GridPruning ... 4 (adaptive)
Weight generation scheme         WeightScheme... mBecke (2022)
Basis function cutoff            BFCut       ... 1.0000e-11
Integration weight cutoff        WCut        ... 1.0000e-14
Partially contracted basis set               ... on
Rotationally invariant grid construction     ... off
Angular grids for H and He will be reduced by one unit

Total number of grid points                  ...    18972
Total number of batches                      ...      156
Average number of points per batch           ...      121
Average number of grid points per atom       ...     1265
UseSFitting                                  ... on

GRIDX 3
-------
General Integration Accuracy     IntAcc      ... 4.338
Radial Grid Type                 RadialGrid  ... OptM3 with GC (2021)
Angular Grid (max. ang.)         AngularGrid ... 3 (Lebedev-194)
Angular grid pruning method      GridPruning ... 4 (adaptive)
Weight generation scheme         WeightScheme... mBecke (2022)
Basis function cutoff            BFCut       ... 1.0000e-11
Integration weight cutoff        WCut        ... 1.0000e-14
Partially contracted basis set               ... on
Rotationally invariant grid construction     ... off
Angular grids for H and He will be reduced by one unit

Total number of grid points                  ...    41689
Total number of batches                      ...      334
Average number of points per batch           ...      124
Average number of grid points per atom       ...     2779
UseSFitting                                  ... on
Initializing property integral containers    ... done (  0.0 sec)

SHARK setup successfully completed in   0.9 seconds

Maximum memory used throughout the entire STARTUP-calculation: 22.4 MB
[psid03:93764] 19 more processes have sent help message help-mpi-btl-openib.txt / ib port not selected
[psid03:93764] Set MCA parameter "orte_base_help_aggregate" to 0 to see all help / error messages
[psid03:93764] 19 more processes have sent help message help-mpi-btl-openib.txt / error in device init
--------------------------------------------------------------------------
By default, for Open MPI 4.0 and later, infiniband ports on a device
are not used by default.  The intent is to use UCX for these devices.
You can override this policy by setting the btl_openib_allow_ib MCA parameter
to true.

  Local host:              psid03
  Local adapter:           mlx5_0
  Local port:              1

--------------------------------------------------------------------------
--------------------------------------------------------------------------
WARNING: There was an error initializing an OpenFabrics device.

  Local host:   psid03
  Local device: mlx5_0
--------------------------------------------------------------------------


           ************************************************************
           *        Program running with 20 parallel MPI-processes    *
           *              working on a common directory               *
           ************************************************************
-------------------------------------------------------------------------------
                                 ORCA GUESS
                   Start orbitals & Density for SCF / CASSCF
-------------------------------------------------------------------------------

------------
SCF SETTINGS
------------
Hamiltonian:
 Density Functional     Method          .... DFT(GTOs)
 Exchange Functional    Exchange        .... B88
   X-Alpha parameter    XAlpha          ....  0.666667
   Becke's b parameter  XBeta           ....  0.004200
 Correlation Functional Correlation     .... LYP
 LDA part of GGA corr.  LDAOpt          .... VWN-5
 Gradients option       PostSCFGGA      .... off
 Hybrid DFT is turned on
   Fraction HF Exchange ScalHFX         ....  0.200000
   Scaling of DF-GGA-X  ScalDFX         ....  0.720000
   Scaling of DF-GGA-C  ScalDFC         ....  0.810000
   Scaling of DF-LDA-C  ScalLDAC        ....  1.000000
   Perturbative correction              ....  0.000000
   NL short-range parameter             ....  4.800000
 RI-approximation to the Coulomb term is turned on
   Number of AuxJ basis functions       .... 431
   RIJ-COSX (HFX calculated with COS-X)).... on


General Settings:
 Integral files         IntName         .... EMC
 Hartree-Fock type      HFTyp           .... RHF
 Total Charge           Charge          ....    0
 Multiplicity           Mult            ....    1
 Number of Electrons    NEL             ....   56
 Basis Dimension        Dim             ....  265
 Nuclear Repulsion      ENuc            ....    316.7379584845 Eh

Convergence Acceleration:
 AO-DIIS                CNVDIIS         .... on
   Start iteration      DIISMaxIt       ....    12
   Startup error        DIISStart       ....  0.200000
   # of expansion vecs  DIISMaxEq       ....     5
   Bias factor          DIISBfac        ....   1.050
   Max. coefficient     DIISMaxC        ....  10.000
 MO-DIIS                CNVKDIIS        .... off
 Trust-Rad. Augm. Hess. CNVTRAH         .... auto
   Auto Start mean grad. ratio tolernc. ....  1.125000
   Auto Start start iteration           ....    50
   Auto Start num. interpolation iter.  ....    10
   Max. Number of Micro iterations      ....    24
   Max. Number of Macro iterations      .... Maxiter - #DIIS iter
   Number of Davidson start vectors     ....     2
   Converg. threshold    (grad. norm)   ....   1.000e-05
   Grad. Scal. Fac. for Micro threshold ....   0.100
   Minimum threshold for Micro iter.    ....   1.000e-02
   NR start threshold (gradient norm)   ....   1.000e-04
   Initial trust radius                 ....   0.400
   Minimum AH scaling param. (alpha)    ....   1.000
   Maximum AH scaling param. (alpha)    .... 1000.000
   Quad. conv. algorithm                .... NR
   White noise on init. David. guess    .... on
   Maximum white noise                  ....   0.010
   Pseudo random numbers                .... off
   Inactive MOs                         .... canonical
   Orbital update algorithm             .... Taylor
   Preconditioner                       .... Diag
   Full preconditioner red. dimension   ....   250
 SOSCF                  CNVSOSCF        .... on
   Start iteration      SOSCFMaxIt      ....   150
   Startup grad/error   SOSCFStart      ....  0.003300
   Hessian update       SOSCFHessUp     .... L-BFGS
 Level Shifting         CNVShift        .... on
   Level shift para.    LevelShift      ....    0.2500
   Turn off err/grad.   ShiftErr        ....    0.0010
 Zerner damping         CNVZerner       .... off
 Static damping         CNVDamp         .... on
   Fraction old density DampFac         ....    0.7000
   Max. Damping (<1)    DampMax         ....    0.9800
   Min. Damping (>=0)   DampMin         ....    0.0000
   Turn off err/grad.   DampErr         ....    0.1000

SCF Procedure:
 Maximum # iterations   MaxIter         ....   125
 SCF integral mode      SCFMode         .... Direct
   Integral package                     .... SHARK and LIBINT hybrid scheme
 Reset frequency        DirectResetFreq ....    20
 Integral Threshold     Thresh          ....  2.500e-11 Eh
 Primitive CutOff       TCut            ....  2.500e-12 Eh

Convergence Tolerance:
 Convergence Check Mode ConvCheckMode   .... Total+1el-Energy
 Convergence forced     ConvForced      .... 0
 Energy Change          TolE            ....  1.000e-08 Eh
 1-El. energy change                    ....  1.000e-05 Eh
 Orbital Gradient       TolG            ....  1.000e-05
 Orbital Rotation angle TolX            ....  1.000e-05
 DIIS Error             TolErr          ....  5.000e-07

------------------------------
INITIAL GUESS: MODEL POTENTIAL
------------------------------
Loading Hartree-Fock densities                     ... done
Calculating cut-offs                               ... done
Initializing the effective Hamiltonian             ... done
Setting up the integral package (SHARK)            ... done
Starting the Coulomb interaction                   ... done (   0.0 sec)
Making the grid                                    ... done (   0.1 sec)
Mapping shells                                     ... done
Starting the XC term evaluation                    ... done (   0.0 sec)
  promolecular density results
     # of electrons  =     55.994513031
     EX              =    -47.519924956
     EC              =     -1.911790023
     EX+EC           =    -49.431714979
Transforming the Hamiltonian                       ... done (   0.0 sec)
Diagonalizing the Hamiltonian                      ... done (   0.0 sec)
Back transforming the eigenvectors                 ... done (   0.0 sec)
Now organizing SCF variables                       ... done
                      ------------------
                      INITIAL GUESS DONE (   0.2 sec)
                      ------------------
             **** ENERGY FILE WAS UPDATED (EMC.en.tmp) ****
Finished Guess after   0.7 sec
Maximum memory used throughout the entire GUESS-calculation: 14.8 MB
[psid03:93852] 19 more processes have sent help message help-mpi-btl-openib.txt / ib port not selected
[psid03:93852] Set MCA parameter "orte_base_help_aggregate" to 0 to see all help / error messages
[psid03:93852] 19 more processes have sent help message help-mpi-btl-openib.txt / error in device init
--------------------------------------------------------------------------
By default, for Open MPI 4.0 and later, infiniband ports on a device
are not used by default.  The intent is to use UCX for these devices.
You can override this policy by setting the btl_openib_allow_ib MCA parameter
to true.

  Local host:              psid03
  Local adapter:           mlx5_0
  Local port:              1

--------------------------------------------------------------------------
--------------------------------------------------------------------------
WARNING: There was an error initializing an OpenFabrics device.

  Local host:   psid03
  Local device: mlx5_0
--------------------------------------------------------------------------


           ************************************************************
           *        Program running with 20 parallel MPI-processes    *
           *              working on a common directory               *
           ************************************************************

-------------------------------------------------------------------------------------------
                                      ORCA LEAN-SCF
                              memory conserving SCF solver
-------------------------------------------------------------------------------------------

----------------------------------------D-I-I-S--------------------------------------------
Iteration    Energy (Eh)           Delta-E    RMSDP     MaxDP     DIISErr   Damp  Time(sec)
-------------------------------------------------------------------------------------------
               ***  Starting incremental Fock matrix formation  ***
    1    -382.6142652105057778     0.00e+00  1.47e-03  6.22e-02  3.18e-01  0.700   0.6
    2    -382.7437038718413760    -1.29e-01  9.42e-04  3.40e-02  1.19e-01  0.700   0.4
                               ***Turning on AO-DIIS***
    3    -382.7878146755011812    -4.41e-02  3.73e-04  8.72e-03  3.73e-02  0.700   0.4
    4    -382.8162493630131848    -2.84e-02  5.53e-04  1.25e-02  1.43e-02  0.000   0.4
    5    -382.8806954208455409    -6.44e-02  1.61e-04  4.96e-03  7.32e-03  0.000   0.4
                              *** Initializing SOSCF ***
---------------------------------------S-O-S-C-F--------------------------------------
Iteration    Energy (Eh)           Delta-E    RMSDP     MaxDP     MaxGrad    Time(sec)
--------------------------------------------------------------------------------------
    6    -382.8810080200954644    -3.13e-04  5.73e-05  1.25e-03  2.17e-03     0.4
               *** Restarting incremental Fock matrix formation ***
    7    -382.8810337489270523    -2.57e-05  4.93e-05  1.68e-03  7.38e-04     0.6
    8    -382.8810156545077916     1.81e-05  2.55e-05  1.18e-03  1.80e-03     0.5
    9    -382.8810399781310707    -2.43e-05  4.41e-06  2.08e-04  8.83e-05     0.5
   10    -382.8810398175648970     1.61e-07  2.51e-06  1.11e-04  1.31e-04     0.4
[psid03:93917] 19 more processes have sent help message help-mpi-btl-openib.txt / ib port not selected
[psid03:93917] Set MCA parameter "orte_base_help_aggregate" to 0 to see all help / error messages
[psid03:93917] 19 more processes have sent help message help-mpi-btl-openib.txt / error in device init
   11    -382.8810401092285929    -2.92e-07  8.56e-07  1.91e-05  9.80e-06     0.4
   12    -382.8810401065273936     2.70e-09  4.43e-07  9.34e-06  9.95e-06     0.4
                 **** Energy Check signals convergence ****

               *****************************************************
               *                     SUCCESS                       *
               *           SCF CONVERGED AFTER  12 CYCLES          *
               *****************************************************

Recomputing exchange energy using gridx3       ... done (    0.638 sec)
Old exchange energy                            :     -9.646424170 Eh
New exchange energy                            :     -9.646433721 Eh
Exchange energy change after final integration :     -0.000009551 Eh
Total energy after final integration           :   -382.881049658 Eh
             **** ENERGY FILE WAS UPDATED (EMC.en.tmp) ****

----------------
TOTAL SCF ENERGY
----------------

Total Energy       :       -382.88104965799801 Eh          -10418.72304 eV

Components:
Nuclear Repulsion  :        316.73795848447332 Eh            8618.87803 eV
Electronic Energy  :       -699.61899859100072 Eh          -19037.60080 eV
One Electron Energy:      -1149.87112839589031 Eh          -31289.58414 eV
Two Electron Energy:        450.25212980488959 Eh           12251.98333 eV

Virial components:
Potential Energy   :       -763.94038781399001 Eh          -20787.87479 eV
Kinetic Energy     :        381.05933815599201 Eh           10369.15175 eV
Virial Ratio       :          2.00478065046463

DFT components:
N(Alpha)           :       28.000003432669 electrons
N(Beta)            :       28.000003432669 electrons
N(Total)           :       56.000006865339 electrons
E(X)               :      -38.382906446481 Eh       
E(C)               :       -2.257141100668 Eh       
E(XC)              :      -40.640047547149 Eh       

---------------
SCF CONVERGENCE
---------------

  Last Energy change         ...   -2.7012e-09  Tolerance :   1.0000e-08
  Last MAX-Density change    ...    9.3436e-06  Tolerance :   1.0000e-07
  Last RMS-Density change    ...    4.4314e-07  Tolerance :   5.0000e-09
  Last DIIS Error            ...    2.1742e-03  Tolerance :   5.0000e-07
  Last Orbital Gradient      ...    9.9505e-06  Tolerance :   1.0000e-05
  Last Orbital Rotation      ...    6.2166e-06  Tolerance :   1.0000e-05


----------------
ORBITAL ENERGIES
----------------

  NO   OCC          E(Eh)            E(eV) 
   0   2.0000     -19.178037      -521.8609 
   1   2.0000     -19.176087      -521.8078 
   2   2.0000     -19.116313      -520.1813 
   3   2.0000     -10.348546      -281.5983 
   4   2.0000     -10.231366      -278.4096 
   5   2.0000     -10.229377      -278.3555 
   6   2.0000     -10.170574      -276.7554 
   7   2.0000      -1.133548       -30.8454 
   8   2.0000      -1.055039       -28.7091 
   9   2.0000      -1.016559       -27.6620 
  10   2.0000      -0.783491       -21.3199 
  11   2.0000      -0.725830       -19.7508 
  12   2.0000      -0.640968       -17.4416 
  13   2.0000      -0.578921       -15.7532 
  14   2.0000      -0.546454       -14.8698 
  15   2.0000      -0.510511       -13.8917 
  16   2.0000      -0.489261       -13.3135 
  17   2.0000      -0.475433       -12.9372 
  18   2.0000      -0.447408       -12.1746 
  19   2.0000      -0.424150       -11.5417 
  20   2.0000      -0.419169       -11.4062 
  21   2.0000      -0.401764       -10.9325 
  22   2.0000      -0.370180       -10.0731 
  23   2.0000      -0.368903       -10.0384 
  24   2.0000      -0.355643        -9.6775 
  25   2.0000      -0.313653        -8.5349 
  26   2.0000      -0.307656        -8.3718 
  27   2.0000      -0.294996        -8.0273 
  28   0.0000       0.022586         0.6146 
  29   0.0000       0.033624         0.9150 
  30   0.0000       0.051665         1.4059 
  31   0.0000       0.065156         1.7730 
  32   0.0000       0.086300         2.3483 
  33   0.0000       0.098871         2.6904 
  34   0.0000       0.104647         2.8476 
  35   0.0000       0.106473         2.8973 
  36   0.0000       0.121478         3.3056 
  37   0.0000       0.121726         3.3123 
  38   0.0000       0.130353         3.5471 
*Only the first 10 virtual orbitals were printed.

                    ********************************
                    * MULLIKEN POPULATION ANALYSIS *
                    ********************************

-----------------------
MULLIKEN ATOMIC CHARGES
-----------------------
   0 O :   -0.260921
   1 O :   -0.265982
   2 O :   -0.367594
   3 C :   -0.011469
   4 C :   -0.299153
   5 C :    0.447747
   6 C :   -0.158195
   7 H :    0.103223
   8 H :    0.103240
   9 H :    0.109731
  10 H :    0.111165
  11 H :    0.111175
  12 H :    0.124577
  13 H :    0.127893
  14 H :    0.124564
Sum of atomic charges:   -0.0000000

--------------------------------
MULLIKEN REDUCED ORBITAL CHARGES
--------------------------------
  0 O s       :     3.778048  s :     3.778048
      pz      :     1.728883  p :     4.442034
      px      :     1.164705
      py      :     1.548446
      dz2     :     0.004608  d :     0.038768
      dxz     :     0.005833
      dyz     :     0.004341
      dx2y2   :     0.008216
      dxy     :     0.015770
      f0      :     0.000272  f :     0.002071
      f+1     :     0.000397
      f-1     :     0.000170
      f+2     :     0.000099
      f-2     :     0.000233
      f+3     :     0.000403
      f-3     :     0.000498

  1 O s       :     3.770222  s :     3.770222
      pz      :     1.731587  p :     4.454525
      px      :     1.183944
      py      :     1.538995
      dz2     :     0.004671  d :     0.039164
      dxz     :     0.005756
      dyz     :     0.004536
      dx2y2   :     0.007976
      dxy     :     0.016225
      f0      :     0.000273  f :     0.002071
      f+1     :     0.000386
      f-1     :     0.000185
      f+2     :     0.000082
      f-2     :     0.000246
      f+3     :     0.000445
      f-3     :     0.000454

  2 O s       :     3.825780  s :     3.825780
      pz      :     1.458845  p :     4.510821
      px      :     1.745368
      py      :     1.306608
      dz2     :     0.002670  d :     0.029217
      dxz     :     0.000329
      dyz     :     0.010302
      dx2y2   :     0.008394
      dxy     :     0.007522
      f0      :     0.000196  f :     0.001776
      f+1     :     0.000028
      f-1     :     0.000179
      f+2     :     0.000395
      f-2     :     0.000049
      f+3     :     0.000498
      f-3     :     0.000432

  3 C s       :     3.226021  s :     3.226021
      pz      :     1.040639  p :     2.653872
      px      :     0.744833
      py      :     0.868400
      dz2     :     0.007645  d :     0.121458
      dxz     :     0.025151
      dyz     :     0.031437
      dx2y2   :     0.032043
      dxy     :     0.025181
      f0      :     0.001307  f :     0.010118
      f+1     :     0.000451
      f-1     :     0.001519
      f+2     :     0.000160
      f-2     :     0.001930
      f+3     :     0.002730
      f-3     :     0.002021

  4 C s       :     3.259453  s :     3.259453
      pz      :     1.058221  p :     2.990045
      px      :     0.941801
      py      :     0.990023
      dz2     :     0.003824  d :     0.045938
      dxz     :     0.007330
      dyz     :     0.017321
      dx2y2   :     0.008371
      dxy     :     0.009093
      f0      :     0.000358  f :     0.003717
      f+1     :     0.000076
      f-1     :     0.001165
      f+2     :     0.000027
      f-2     :     0.000527
      f+3     :     0.000670
      f-3     :     0.000895

  5 C s       :     3.000987  s :     3.000987
      pz      :     0.799630  p :     2.222678
      px      :     0.688413
      py      :     0.734634
      dz2     :     0.009762  d :     0.298222
      dxz     :     0.046726
      dyz     :     0.073255
      dx2y2   :     0.066502
      dxy     :     0.101976
      f0      :     0.003402  f :     0.030366
      f+1     :     0.001353
      f-1     :     0.001700
      f+2     :     0.003055
      f-2     :     0.004235
      f+3     :     0.010392
      f-3     :     0.006229

  6 C s       :     3.254947  s :     3.254947
      pz      :     1.081583  p :     2.815225
      px      :     0.706137
      py      :     1.027505
      dz2     :     0.006319  d :     0.080407
      dxz     :     0.026435
      dyz     :     0.011486
      dx2y2   :     0.012864
      dxy     :     0.023304
      f0      :     0.000957  f :     0.007616
      f+1     :     0.000564
      f-1     :     0.001312
      f+2     :     0.001062
      f-2     :     0.000406
      f+3     :     0.001975
      f-3     :     0.001341

  7 H s       :     0.875941  s :     0.875941
      pz      :     0.010083  p :     0.020836
      px      :     0.003321
      py      :     0.007433

  8 H s       :     0.875923  s :     0.875923
      pz      :     0.010074  p :     0.020838
      px      :     0.003322
      py      :     0.007442

  9 H s       :     0.868939  s :     0.868939
      pz      :     0.004386  p :     0.021331
      px      :     0.010389
      py      :     0.006556

 10 H s       :     0.867567  s :     0.867567
      pz      :     0.009531  p :     0.021268
      px      :     0.004158
      py      :     0.007579

 11 H s       :     0.867554  s :     0.867554
      pz      :     0.009525  p :     0.021271
      px      :     0.004159
      py      :     0.007586

 12 H s       :     0.855012  s :     0.855012
      pz      :     0.010143  p :     0.020412
      px      :     0.003271
      py      :     0.006997

 13 H s       :     0.851694  s :     0.851694
      pz      :     0.004438  p :     0.020413
      px      :     0.006716
      py      :     0.009259

 14 H s       :     0.855025  s :     0.855025
      pz      :     0.010152  p :     0.020410
      px      :     0.003266
      py      :     0.006992



                     *******************************
                     * LOEWDIN POPULATION ANALYSIS *
                     *******************************

----------------------
LOEWDIN ATOMIC CHARGES
----------------------
   0 O :    0.245556
   1 O :    0.222097
   2 O :    0.063224
   3 C :   -0.308582
   4 C :   -0.304345
   5 C :   -0.572510
   6 C :   -0.303349
   7 H :    0.126585
   8 H :    0.126579
   9 H :    0.124869
  10 H :    0.121732
  11 H :    0.121715
  12 H :    0.111551
  13 H :    0.113322
  14 H :    0.111557

-------------------------------
LOEWDIN REDUCED ORBITAL CHARGES
-------------------------------
  0 O s       :     3.263236  s :     3.263236
      pz      :     1.598693  p :     4.381139
      px      :     1.240501
      py      :     1.541945
      dz2     :     0.011144  d :     0.103544
      dxz     :     0.016862
      dyz     :     0.007635
      dx2y2   :     0.027466
      dxy     :     0.040438
      f0      :     0.000592  f :     0.006525
      f+1     :     0.000918
      f-1     :     0.000280
      f+2     :     0.000158
      f-2     :     0.001013
      f+3     :     0.001959
      f-3     :     0.001605

  1 O s       :     3.270743  s :     3.270743
      pz      :     1.601777  p :     4.396468
      px      :     1.257560
      py      :     1.537131
      dz2     :     0.011072  d :     0.104148
      dxz     :     0.017741
      dyz     :     0.006978
      dx2y2   :     0.025740
      dxy     :     0.042618
      f0      :     0.000603  f :     0.006543
      f+1     :     0.000853
      f-1     :     0.000367
      f+2     :     0.000325
      f-2     :     0.000826
      f+3     :     0.001955
      f-3     :     0.001614

  2 O s       :     3.417078  s :     3.417078
      pz      :     1.371985  p :     4.448843
      px      :     1.603425
      py      :     1.473433
      dz2     :     0.008532  d :     0.064872
      dxz     :     0.000449
      dyz     :     0.014589
      dx2y2   :     0.025763
      dxy     :     0.015539
      f0      :     0.000468  f :     0.005982
      f+1     :     0.000108
      f-1     :     0.000989
      f+2     :     0.000805
      f-2     :     0.000125
      f+3     :     0.001618
      f-3     :     0.001869

  3 C s       :     2.807968  s :     2.807968
      pz      :     1.064019  p :     2.918816
      px      :     0.880781
      py      :     0.974016
      dz2     :     0.057637  d :     0.512716
      dxz     :     0.075130
      dyz     :     0.129488
      dx2y2   :     0.112535
      dxy     :     0.137926
      f0      :     0.007777  f :     0.069081
      f+1     :     0.006550
      f-1     :     0.005946
      f+2     :     0.005124
      f-2     :     0.010871
      f+3     :     0.019053
      f-3     :     0.013762

  4 C s       :     2.839157  s :     2.839157
      pz      :     1.078272  p :     3.186637
      px      :     1.045813
      py      :     1.062552
      dz2     :     0.035298  d :     0.253045
      dxz     :     0.028292
      dyz     :     0.078273
      dx2y2   :     0.042363
      dxy     :     0.068819
      f0      :     0.002357  f :     0.025507
      f+1     :     0.003187
      f-1     :     0.003828
      f+2     :     0.003828
      f-2     :     0.003107
      f+3     :     0.004231
      f-3     :     0.004970

  5 C s       :     2.744919  s :     2.744919
      pz      :     0.782197  p :     2.599548
      px      :     0.844252
      py      :     0.973099
      dz2     :     0.074200  d :     1.045664
      dxz     :     0.123072
      dyz     :     0.199518
      dx2y2   :     0.263250
      dxy     :     0.385625
      f0      :     0.010225  f :     0.182378
      f+1     :     0.010218
      f-1     :     0.013648
      f+2     :     0.021130
      f-2     :     0.024294
      f+3     :     0.064333
      f-3     :     0.038530

  6 C s       :     2.867097  s :     2.867097
      pz      :     1.113841  p :     3.016642
      px      :     0.819715
      py      :     1.083086
      dz2     :     0.049656  d :     0.366242
      dxz     :     0.077826
      dyz     :     0.059546
      dx2y2   :     0.061798
      dxy     :     0.117416
      f0      :     0.005726  f :     0.053368
      f+1     :     0.007271
      f-1     :     0.004195
      f+2     :     0.008667
      f-2     :     0.003112
      f+3     :     0.012583
      f-3     :     0.011813

  7 H s       :     0.814961  s :     0.814961
      pz      :     0.029116  p :     0.058454
      px      :     0.009628
      py      :     0.019710

  8 H s       :     0.814961  s :     0.814961
      pz      :     0.029096  p :     0.058460
      px      :     0.009631
      py      :     0.019734

  9 H s       :     0.814933  s :     0.814933
      pz      :     0.013399  p :     0.060198
      px      :     0.026768
      py      :     0.020032

 10 H s       :     0.817955  s :     0.817955
      pz      :     0.027347  p :     0.060313
      px      :     0.012364
      py      :     0.020602

 11 H s       :     0.817959  s :     0.817959
      pz      :     0.027334  p :     0.060326
      px      :     0.012368
      py      :     0.020624

 12 H s       :     0.827337  s :     0.827337
      pz      :     0.030641  p :     0.061112
      px      :     0.009437
      py      :     0.021034

 13 H s       :     0.826892  s :     0.826892
      pz      :     0.013556  p :     0.059786
      px      :     0.018158
      py      :     0.028073

 14 H s       :     0.827337  s :     0.827337
      pz      :     0.030663  p :     0.061106
      px      :     0.009424
      py      :     0.021018



                      *****************************
                      * MAYER POPULATION ANALYSIS *
                      *****************************

  NA   - Mulliken gross atomic population
  ZA   - Total nuclear charge
  QA   - Mulliken gross atomic charge
  VA   - Mayer's total valence
  BVA  - Mayer's bonded valence
  FA   - Mayer's free valence

  ATOM       NA         ZA         QA         VA         BVA        FA
  0 O      8.2609     8.0000    -0.2609     2.1067     2.1067    -0.0000
  1 O      8.2660     8.0000    -0.2660     2.1051     2.1051    -0.0000
  2 O      8.3676     8.0000    -0.3676     2.1180     2.1180    -0.0000
  3 C      6.0115     6.0000    -0.0115     3.8389     3.8389    -0.0000
  4 C      6.2992     6.0000    -0.2992     3.8750     3.8750    -0.0000
  5 C      5.5523     6.0000     0.4477     4.3816     4.3816     0.0000
  6 C      6.1582     6.0000    -0.1582     3.8622     3.8622     0.0000
  7 H      0.8968     1.0000     0.1032     0.9657     0.9657     0.0000
  8 H      0.8968     1.0000     0.1032     0.9657     0.9657     0.0000
  9 H      0.8903     1.0000     0.1097     0.9719     0.9719    -0.0000
 10 H      0.8888     1.0000     0.1112     0.9729     0.9729     0.0000
 11 H      0.8888     1.0000     0.1112     0.9728     0.9728    -0.0000
 12 H      0.8754     1.0000     0.1246     0.9677     0.9677     0.0000
 13 H      0.8721     1.0000     0.1279     0.9581     0.9581     0.0000
 14 H      0.8754     1.0000     0.1246     0.9677     0.9677     0.0000

  Mayer bond orders larger than 0.100000
B(  0-O ,  3-C ) :   0.8797 B(  0-O ,  5-C ) :   1.1985 B(  1-O ,  5-C ) :   1.1933 
B(  1-O ,  6-C ) :   0.9003 B(  2-O ,  5-C ) :   1.9418 B(  3-C ,  4-C ) :   0.9783 
B(  3-C ,  7-H ) :   0.9679 B(  3-C ,  8-H ) :   0.9679 B(  4-C ,  9-H ) :   0.9673 
B(  4-C , 10-H ) :   0.9704 B(  4-C , 11-H ) :   0.9704 B(  6-C , 12-H ) :   0.9742 
B(  6-C , 13-H ) :   0.9639 B(  6-C , 14-H ) :   0.9742 

-------
TIMINGS
-------

Total SCF time: 0 days 0 hours 0 min 6 sec 

Total time                  ....       6.819 sec
Sum of individual times     ....       6.697 sec  ( 98.2%)

SCF preparation             ....       0.588 sec  (  8.6%)
Fock matrix formation       ....       5.448 sec  ( 79.9%)
  Startup                   ....       0.063 sec  (  1.2% of F)
  Split-RI-J                ....       0.473 sec  (  8.7% of F)
  Chain of spheres X        ....       3.605 sec  ( 66.2% of F)
  XC integration            ....       1.141 sec  ( 20.9% of F)
    XC Preparation          ....       0.000 sec  (  0.0% of XC)
    Basis function eval.    ....       0.185 sec  ( 16.2% of XC)
    Density eval.           ....       0.118 sec  ( 10.3% of XC)
    XC-Functional eval.     ....       0.039 sec  (  3.4% of XC)
    XC-Potential eval.      ....       0.240 sec  ( 21.0% of XC)
Diagonalization             ....       0.000 sec  (  0.0%)
Density matrix formation    ....       0.151 sec  (  2.2%)
Total Energy calculation    ....       0.052 sec  (  0.8%)
Population analysis         ....       0.035 sec  (  0.5%)
Orbital Transformation      ....       0.045 sec  (  0.7%)
Orbital Orthonormalization  ....       0.000 sec  (  0.0%)
DIIS solution               ....       0.248 sec  (  3.6%)
SOSCF solution              ....       0.131 sec  (  1.9%)
Finished LeanSCF after   6.9 sec

Maximum memory used throughout the entire LEANSCF-calculation: 24.4 MB

-------------------------   --------------------
FINAL SINGLE POINT ENERGY      -382.881049657998
-------------------------   --------------------

--------------------------------------------------------------------------
By default, for Open MPI 4.0 and later, infiniband ports on a device
are not used by default.  The intent is to use UCX for these devices.
You can override this policy by setting the btl_openib_allow_ib MCA parameter
to true.

  Local host:              psid03
  Local adapter:           mlx5_0
  Local port:              1

--------------------------------------------------------------------------
--------------------------------------------------------------------------
WARNING: There was an error initializing an OpenFabrics device.

  Local host:   psid03
  Local device: mlx5_0
--------------------------------------------------------------------------


           ************************************************************
           *        Program running with 20 parallel MPI-processes    *
           *              working on a common directory               *
           ************************************************************
------------------------------------------------------------------------------
                         ORCA SCF GRADIENT CALCULATION
------------------------------------------------------------------------------

Nuc. rep. gradient        (SHARK) ... done (  0.0 sec)
HCore & Overlap gradient  (SHARK) ... done (  0.0 sec)
Split-RIJ-J gradient      (SHARK) ... done (  0.2 sec)
COSX-gradient                     ... done (  1.9 sec)
XC gradient                       ... done (  0.3 sec)

------------------
CARTESIAN GRADIENT
------------------

   1   O   :    0.024096334   -0.003958654   -0.000025731
   2   O   :   -0.016820682   -0.009012412   -0.000031395
   3   O   :   -0.004518701    0.034656044   -0.000056336
   4   C   :   -0.010992194   -0.009280593    0.000002818
   5   C   :    0.003076144    0.010682139   -0.000035642
   6   C   :    0.001522107   -0.011347893    0.000144459
   7   C   :    0.005669996   -0.004378877   -0.000002027
   8   H   :    0.002890031   -0.000753493   -0.003856951
   9   H   :    0.002878095   -0.000767650    0.003842366
  10   H   :    0.002841317   -0.000133393   -0.000008299
  11   H   :   -0.001214005   -0.002332191    0.000682899
  12   H   :   -0.001207751   -0.002299329   -0.000643510
  13   H   :   -0.000529814   -0.000994332    0.003897868
  14   H   :   -0.007157873    0.000899295    0.000001248
  15   H   :   -0.000533004   -0.000978662   -0.003911767

Difference to translation invariance:
           :   -0.0000000000    0.0000000000    0.0000000000

Difference to rotation invariance:
           :   -0.0000004424    0.0000005292    0.0000209693

Norm of the Cartesian gradient     ...    0.0533854530
RMS gradient                       ...    0.0079582335
MAX gradient                       ...    0.0346560444

-------
TIMINGS
-------

Total SCF gradient time     ....        2.512 sec

Densities                   ....       0.001 sec  (  0.0%)
One electron gradient       ....       0.025 sec  (  1.0%)
RI-J Coulomb gradient       ....       0.250 sec  (  9.9%)
COSX gradient               ....       1.924 sec  ( 76.6%)
XC gradient                 ....       0.312 sec  ( 12.4%)

Maximum memory used throughout the entire SCFGRAD-calculation: 30.4 MB
[psid03:93996] 19 more processes have sent help message help-mpi-btl-openib.txt / ib port not selected
[psid03:93996] Set MCA parameter "orte_base_help_aggregate" to 0 to see all help / error messages
[psid03:93996] 19 more processes have sent help message help-mpi-btl-openib.txt / error in device init
------------------------------------------------------------------------------
                         ORCA GEOMETRY RELAXATION STEP
------------------------------------------------------------------------------

Reading the OPT-File                    .... done
Getting information on internals        .... done
Copying old internal coords+grads       .... done
Making the new internal coordinates     .... (2022 redundants) done
Validating the new internal coordinates .... (2022 redundants) done
Calculating the B-matrix                .... done
Calculating the G,G- and P matrices     .... done
Transforming gradient to internals      .... done
Projecting the internal gradient        .... done
Number of atoms                         ....  15
Number of internal coordinates          ....  53
Current Energy                          ....  -382.881049658 Eh
Current gradient norm                   ....     0.053385453 Eh/bohr
Maximum allowed component of the step   ....  0.300
Current trust radius                    ....  0.300
Evaluating the initial hessian          ....  (Almloef) done
Projecting the Hessian                  .... done
Forming the augmented Hessian           .... done
Diagonalizing the augmented Hessian     .... done
Last element of RFO vector              ....  0.996050616
Lowest eigenvalues of augmented Hessian:
 -0.004221110  0.012477297  0.018211257  0.018214277  0.028127591
Length of the computed step             ....  0.089139268
The final length of the internal step   ....  0.089139268
Converting the step to Cartesian space:
 Initial RMS(Int)=    0.0122442202
Transforming coordinates:
 Iter   0:  RMS(Cart)=    0.0299504887 RMS(Int)=    1.7259017835
done
Storing new coordinates                 .... done

                                .--------------------.
          ----------------------|Geometry convergence|-------------------------
          Item                value                   Tolerance       Converged
          ---------------------------------------------------------------------
          RMS gradient        0.0072243740            0.0000300000      NO
          MAX gradient        0.0349433145            0.0001000000      NO
          RMS step            0.0122442202            0.0006000000      NO
          MAX step            0.0384111662            0.0010000000      NO
          ........................................................
          Max(Bonds)      0.0203      Max(Angles)    1.53
          Max(Dihed)        0.51      Max(Improp)    0.00
          ---------------------------------------------------------------------

The optimization has not yet converged - more geometry cycles are needed


    ---------------------------------------------------------------------------
                         Redundant Internal Coordinates
                            (Angstroem and degrees)

        Definition                    Value    dE/dq     Step     New-Value
    ----------------------------------------------------------------------------
     1. B(C   3,O   0)                1.4315 -0.004318  0.0047    1.4362   
     2. B(C   4,C   3)                1.5138 -0.000418  0.0006    1.5144   
     3. B(C   5,O   0)                1.3624  0.023925 -0.0203    1.3421   
     4. B(C   5,O   2)                1.2237  0.034943 -0.0179    1.2058   
     5. B(C   5,O   1)                1.3624  0.023954 -0.0203    1.3420   
     6. B(C   6,O   1)                1.4315  0.000541 -0.0006    1.4309   
     7. B(H   7,C   3)                1.0958  0.002663 -0.0039    1.0918   
     8. B(H   8,C   3)                1.0957  0.002642 -0.0039    1.0918   
     9. B(H   9,C   4)                1.0937  0.002251 -0.0033    1.0903   
    10. B(H  10,C   4)                1.0950  0.001909 -0.0028    1.0922   
    11. B(H  11,C   4)                1.0950  0.001860 -0.0028    1.0922   
    12. B(H  12,C   6)                1.0942  0.002758 -0.0041    1.0901   
    13. B(H  13,C   6)                1.0932  0.003701 -0.0054    1.0878   
    14. B(H  14,C   6)                1.0942  0.002781 -0.0041    1.0901   
    15. A(C   3,O   0,C   5)          115.57  0.001771   -0.25    115.33   
    16. A(C   5,O   1,C   6)          115.58  0.005313   -0.74    114.84   
    17. A(C   4,C   3,H   8)          109.75 -0.004828    1.00    110.75   
    18. A(O   0,C   3,H   8)          109.46 -0.000298   -0.15    109.31   
    19. A(C   4,C   3,H   7)          109.75 -0.004838    1.00    110.75   
    20. A(H   7,C   3,H   8)          109.40  0.003395   -0.68    108.72   
    21. A(O   0,C   3,H   7)          109.47 -0.000279   -0.15    109.31   
    22. A(O   0,C   3,C   4)          109.00  0.006859   -1.04    107.96   
    23. A(H   9,C   4,H  10)          108.85 -0.000236   -0.19    108.66   
    24. A(C   3,C   4,H  10)          110.61 -0.002323    0.34    110.95   
    25. A(C   3,C   4,H   9)          110.95  0.004442   -0.83    110.12   
    26. A(H  10,C   4,H  11)          106.87 -0.002714    0.64    107.51   
    27. A(H   9,C   4,H  11)          108.84  0.001841   -0.24    108.59   
    28. A(C   3,C   4,H  11)          110.61 -0.001209    0.31    110.92   
    29. A(O   0,C   5,O   1)          108.00  0.002567   -0.33    107.67   
    30. A(O   1,C   5,O   2)          126.00 -0.000524    0.07    126.07   
    31. A(O   0,C   5,O   2)          126.00 -0.002044    0.26    126.25   
    32. A(H  12,C   6,H  14)          110.71  0.002698   -0.59    110.13   
    33. A(O   1,C   6,H  14)          110.25 -0.002083    0.32    110.57   
    34. A(H  12,C   6,H  13)          108.72 -0.003750    0.73    109.45   
    35. A(O   1,C   6,H  13)          108.12  0.009081   -1.53    106.58   
    36. A(H  13,C   6,H  14)          108.73 -0.003744    0.73    109.46   
    37. A(O   1,C   6,H  12)          110.25 -0.002099    0.33    110.57   
    38. D(C   4,C   3,O   0,C   5)    180.00 -0.000000    0.00    180.00   
    39. D(H   8,C   3,O   0,C   5)     59.95  0.001901   -0.50     59.45   
    40. D(H   7,C   3,O   0,C   5)    -59.95 -0.001902    0.51    -59.45   
    41. D(H   9,C   4,C   3,H   8)    -60.13  0.000372    0.07    -60.06   
    42. D(H   9,C   4,C   3,H   7)     60.13 -0.001485    0.49     60.62   
    43. D(H  10,C   4,C   3,O   0)    -59.10  0.000560   -0.28    -59.38   
    44. D(H  10,C   4,C   3,H   8)     60.77  0.001479   -0.49     60.28   
    45. D(H  10,C   4,C   3,H   7)   -178.97 -0.000377   -0.07   -179.04   
    46. D(H   9,C   4,C   3,O   0)   -180.00 -0.000548    0.28   -179.72   
    47. D(O   2,C   5,O   1,C   6)      0.00 -0.000039    0.07      0.07   
    48. D(O   0,C   5,O   1,C   6)   -179.95  0.000061   -0.11   -180.06   
    49. D(O   2,C   5,O   0,C   3)     -0.00  0.000039   -0.07     -0.07   
    50. D(O   1,C   5,O   0,C   3)    179.95 -0.000060    0.11    180.06   
    51. D(H  13,C   6,O   1,C   5)   -180.00  0.000006   -0.00   -180.00   
    52. D(H  12,C   6,O   1,C   5)    -61.27 -0.000296    0.15    -61.12   
    53. D(H  14,C   6,O   1,C   5)     61.27  0.000290   -0.15     61.12   
    ----------------------------------------------------------------------------

Geometry step timings:
Preparation and reading OPT file:      0.001 s (10.215 %)
Internal coordinates            :      0.000 s ( 0.490 %)
B/P matrices and projection     :      0.001 s ( 9.649 %)
Hessian update/contruction      :      0.002 s (45.703 %)
Making the step                 :      0.000 s ( 8.349 %)
Converting the step to Cartesian:      0.000 s ( 1.093 %)
Storing new data                :      0.000 s ( 8.896 %)
Checking convergence            :      0.000 s ( 0.075 %)
Final printing                  :      0.001 s (15.303 %)
Total time                      :      0.005 s
--------------------------------------------------------------------------
By default, for Open MPI 4.0 and later, infiniband ports on a device
are not used by default.  The intent is to use UCX for these devices.
You can override this policy by setting the btl_openib_allow_ib MCA parameter
to true.

  Local host:              psid03
  Local adapter:           mlx5_0
  Local port:              1

--------------------------------------------------------------------------
--------------------------------------------------------------------------
WARNING: There was an error initializing an OpenFabrics device.

  Local host:   psid03
  Local device: mlx5_0
--------------------------------------------------------------------------
[psid03:94065] 19 more processes have sent help message help-mpi-btl-openib.txt / ib port not selected
[psid03:94065] Set MCA parameter "orte_base_help_aggregate" to 0 to see all help / error messages
[psid03:94065] 19 more processes have sent help message help-mpi-btl-openib.txt / error in device init

Time for energy+gradient        :     12.990 s
Time for complete geometry iter :     13.746 s

         *************************************************************
         *                GEOMETRY OPTIMIZATION CYCLE   2            *
         *************************************************************
---------------------------------
CARTESIAN COORDINATES (ANGSTROEM)
---------------------------------
  O      0.667493   -0.453141   -0.000589
  O     -1.474606   -0.780920    0.000061
  O     -0.707690    1.357425   -0.002074
  C      1.811323    0.415368   -0.001006
  C      3.054506   -0.449424    0.000533
  C     -0.523400    0.165792   -0.001853
  C     -2.816704   -0.284653    0.000412
  H      1.782684    1.049973   -0.889011
  H      1.781819    1.051941    0.885556
  H      3.947057    0.176806    0.005226
  H      3.078031   -1.097910    0.879084
  H      3.084147   -1.091331   -0.882648
  H     -3.004408    0.311657    0.893460
  H     -3.469462   -1.154790    0.002013
  H     -3.005690    0.309408   -0.893864

----------------------------
CARTESIAN COORDINATES (A.U.)
----------------------------
  NO LB      ZA    FRAG     MASS         X           Y           Z
   0 O     8.0000    0    15.999    1.261379   -0.856313   -0.001113
   1 O     8.0000    0    15.999   -2.786601   -1.475725    0.000115
   2 O     8.0000    0    15.999   -1.337341    2.565161   -0.003919
   3 C     6.0000    0    12.011    3.422904    0.784932   -0.001901
   4 C     6.0000    0    12.011    5.772180   -0.849289    0.001008
   5 C     6.0000    0    12.011   -0.989083    0.313302   -0.003501
   6 C     6.0000    0    12.011   -5.322800   -0.537917    0.000778
   7 H     1.0000    0     1.008    3.368785    1.984162   -1.679987
   8 H     1.0000    0     1.008    3.367149    1.987880    1.673458
   9 H     1.0000    0     1.008    7.458857    0.334115    0.009876
  10 H     1.0000    0     1.008    5.816636   -2.074750    1.661228
  11 H     1.0000    0     1.008    5.828194   -2.062317   -1.667963
  12 H     1.0000    0     1.008   -5.677508    0.588947    1.688394
  13 H     1.0000    0     1.008   -6.556333   -2.182237    0.003803
  14 H     1.0000    0     1.008   -5.679932    0.584697   -1.689158

--------------------------------
INTERNAL COORDINATES (ANGSTROEM)
--------------------------------
[...]
                     * LOEWDIN POPULATION ANALYSIS *
                     *******************************

----------------------
LOEWDIN ATOMIC CHARGES
----------------------
   0 O :    0.257641
   1 O :    0.237576
   2 O :    0.079739
   3 C :   -0.291803
   4 C :   -0.302078
   5 C :   -0.640500
   6 C :   -0.294984
   7 H :    0.125798
   8 H :    0.125793
   9 H :    0.125116
  10 H :    0.121935
  11 H :    0.121922
  12 H :    0.110828
  13 H :    0.112189
  14 H :    0.110827

-------------------------------
LOEWDIN REDUCED ORBITAL CHARGES
-------------------------------
  0 O s       :     3.254171  s :     3.254171
      pz      :     1.590655  p :     4.376320
      px      :     1.246706
      py      :     1.538959
      dz2     :     0.011292  d :     0.105082
      dxz     :     0.017270
      dyz     :     0.007651
      dx2y2   :     0.027991
      dxy     :     0.040878
      f0      :     0.000613  f :     0.006786
      f+1     :     0.000937
      f-1     :     0.000286
      f+2     :     0.000184
      f-2     :     0.001031
      f+3     :     0.002108
      f-3     :     0.001627

  1 O s       :     3.258952  s :     3.258952
      pz      :     1.593180  p :     4.389273
      px      :     1.256907
      py      :     1.539186
      dz2     :     0.011323  d :     0.107261
      dxz     :     0.018022
      dyz     :     0.007523
      dx2y2   :     0.027631
      dxy     :     0.042762
      f0      :     0.000634  f :     0.006937
      f+1     :     0.000863
      f-1     :     0.000389
      f+2     :     0.000326
      f-2     :     0.000895
      f+3     :     0.002077
      f-3     :     0.001753

  2 O s       :     3.399413  s :     3.399413
      pz      :     1.369785  p :     4.447058
      px      :     1.594002
      py      :     1.483271
      dz2     :     0.008614  d :     0.067284
      dxz     :     0.000538
      dyz     :     0.015404
      dx2y2   :     0.025939
      dxy     :     0.016790
      f0      :     0.000517  f :     0.006506
      f+1     :     0.000123
      f-1     :     0.001039
      f+2     :     0.000880
      f-2     :     0.000156
      f+3     :     0.001810
      f-3     :     0.001980

  3 C s       :     2.809968  s :     2.809968
      pz      :     1.069153  p :     2.913115
      px      :     0.872740
      py      :     0.971221
      dz2     :     0.055491  d :     0.501738
      dxz     :     0.071570
      dyz     :     0.129265
      dx2y2   :     0.109313
      dxy     :     0.136098
      f0      :     0.007141  f :     0.066983
      f+1     :     0.006379
      f-1     :     0.005763
      f+2     :     0.004989
      f-2     :     0.010527
      f+3     :     0.018692
      f-3     :     0.013491

  4 C s       :     2.836394  s :     2.836394
      pz      :     1.076663  p :     3.187003
      px      :     1.047267
      py      :     1.063073
      dz2     :     0.036858  d :     0.253024
      dxz     :     0.027192
      dyz     :     0.077543
      dx2y2   :     0.042133
      dxy     :     0.069298
      f0      :     0.002454  f :     0.025657
      f+1     :     0.003152
      f-1     :     0.003915
      f+2     :     0.003505
      f-2     :     0.003175
      f+3     :     0.004339
      f-3     :     0.005118

  5 C s       :     2.728878  s :     2.728878
      pz      :     0.781018  p :     2.617450
      px      :     0.852219
      py      :     0.984213
      dz2     :     0.076470  d :     1.095685
      dxz     :     0.132676
      dyz     :     0.210139
      dx2y2   :     0.277089
      dxy     :     0.399310
      f0      :     0.011006  f :     0.198487
      f+1     :     0.010652
      f-1     :     0.013958
      f+2     :     0.022975
      f-2     :     0.027169
      f+3     :     0.070801
      f-3     :     0.041927

  6 C s       :     2.865644  s :     2.865644
      pz      :     1.116799  p :     3.013501
      px      :     0.815248
      py      :     1.081454
      dz2     :     0.047859  d :     0.362870
      dxz     :     0.075732
      dyz     :     0.061263
      dx2y2   :     0.061652
      dxy     :     0.116364
      f0      :     0.005419  f :     0.052969
      f+1     :     0.007108
      f-1     :     0.004194
      f+2     :     0.008622
      f-2     :     0.003139
      f+3     :     0.012694
      f-3     :     0.011792

  7 H s       :     0.814823  s :     0.814823
      pz      :     0.029359  p :     0.059379
      px      :     0.009751
      py      :     0.020269

  8 H s       :     0.814831  s :     0.814831
      pz      :     0.029351  p :     0.059376
      px      :     0.009750
      py      :     0.020275

  9 H s       :     0.814515  s :     0.814515
      pz      :     0.013491  p :     0.060369
      px      :     0.026685
      py      :     0.020193

 10 H s       :     0.817180  s :     0.817180
      pz      :     0.027822  p :     0.060884
      px      :     0.012631
      py      :     0.020431

 11 H s       :     0.817193  s :     0.817193
      pz      :     0.027831  p :     0.060885
      px      :     0.012631
      py      :     0.020423

 12 H s       :     0.827364  s :     0.827364
      pz      :     0.030706  p :     0.061807
      px      :     0.009552
      py      :     0.021550

 13 H s       :     0.827320  s :     0.827320
      pz      :     0.013750  p :     0.060492
      px      :     0.017114
      py      :     0.029628

 14 H s       :     0.827367  s :     0.827367
      pz      :     0.030739  p :     0.061807
      px      :     0.009550
      py      :     0.021517



                      *****************************
                      * MAYER POPULATION ANALYSIS *
                      *****************************

  NA   - Mulliken gross atomic population
  ZA   - Total nuclear charge
  QA   - Mulliken gross atomic charge
  VA   - Mayer's total valence
  BVA  - Mayer's bonded valence
  FA   - Mayer's free valence

  ATOM       NA         ZA         QA         VA         BVA        FA
  0 O      8.2614     8.0000    -0.2614     2.1062     2.1062     0.0000
  1 O      8.2669     8.0000    -0.2669     2.1040     2.1040    -0.0000
  2 O      8.3615     8.0000    -0.3615     2.1236     2.1236    -0.0000
  3 C      6.0195     6.0000    -0.0195     3.8302     3.8302     0.0000
  4 C      6.2946     6.0000    -0.2946     3.8810     3.8810    -0.0000
  5 C      5.5638     6.0000     0.4362     4.4186     4.4186    -0.0000
  6 C      6.1556     6.0000    -0.1556     3.8578     3.8578     0.0000
  7 H      0.8927     1.0000     0.1073     0.9664     0.9664     0.0000
  8 H      0.8927     1.0000     0.1073     0.9664     0.9664    -0.0000
  9 H      0.8925     1.0000     0.1075     0.9712     0.9712     0.0000
 10 H      0.8871     1.0000     0.1129     0.9733     0.9733     0.0000
 11 H      0.8872     1.0000     0.1128     0.9733     0.9733     0.0000
 12 H      0.8753     1.0000     0.1247     0.9682     0.9682     0.0000
 13 H      0.8740     1.0000     0.1260     0.9612     0.9612     0.0000
 14 H      0.8753     1.0000     0.1247     0.9682     0.9682     0.0000

  Mayer bond orders larger than 0.100000
B(  0-O ,  3-C ) :   0.8679 B(  0-O ,  5-C ) :   1.2172 B(  1-O ,  5-C ) :   1.2055 
B(  1-O ,  6-C ) :   0.8954 B(  2-O ,  5-C ) :   1.9532 B(  3-C ,  4-C ) :   0.9811 
B(  3-C ,  7-H ) :   0.9685 B(  3-C ,  8-H ) :   0.9685 B(  4-C ,  9-H ) :   0.9677 
B(  4-C , 10-H ) :   0.9704 B(  4-C , 11-H ) :   0.9704 B(  6-C , 12-H ) :   0.9743 
B(  6-C , 13-H ) :   0.9658 B(  6-C , 14-H ) :   0.9743 

-------
TIMINGS
-------

Total SCF time: 0 days 0 hours 0 min 2 sec 

Total time                  ....       2.937 sec
Sum of individual times     ....       2.839 sec  ( 96.6%)

SCF preparation             ....       0.608 sec  ( 20.7%)
Fock matrix formation       ....       2.024 sec  ( 68.9%)
  Startup                   ....       0.024 sec  (  1.2% of F)
  Split-RI-J                ....       0.115 sec  (  5.7% of F)
  Chain of spheres X        ....       1.575 sec  ( 77.8% of F)
  XC integration            ....       0.268 sec  ( 13.2% of F)
    Basis function eval.    ....       0.048 sec  ( 17.8% of XC)
    Density eval.           ....       0.033 sec  ( 12.5% of XC)
    XC-Functional eval.     ....       0.010 sec  (  3.6% of XC)
    XC-Potential eval.      ....       0.061 sec  ( 22.8% of XC)
Diagonalization             ....       0.000 sec  (  0.0%)
Density matrix formation    ....       0.033 sec  (  1.1%)
Total Energy calculation    ....       0.017 sec  (  0.6%)
Population analysis         ....       0.040 sec  (  1.4%)
Orbital Transformation      ....       0.022 sec  (  0.8%)
Orbital Orthonormalization  ....       0.000 sec  (  0.0%)
DIIS solution               ....       0.033 sec  (  1.1%)
SOSCF solution              ....       0.060 sec  (  2.1%)
Finished LeanSCF after   3.0 sec

Maximum memory used throughout the entire LEANSCF-calculation: 25.3 MB
[psid03:96584] 19 more processes have sent help message help-mpi-btl-openib.txt / ib port not selected
[psid03:96584] Set MCA parameter "orte_base_help_aggregate" to 0 to see all help / error messages
[psid03:96584] 19 more processes have sent help message help-mpi-btl-openib.txt / error in device init

-------------------------   --------------------
FINAL SINGLE POINT ENERGY      -382.883926357503
-------------------------   --------------------

                                *** OPTIMIZATION RUN DONE ***

--------------------------------------------------------------------------
By default, for Open MPI 4.0 and later, infiniband ports on a device
are not used by default.  The intent is to use UCX for these devices.
You can override this policy by setting the btl_openib_allow_ib MCA parameter
to true.

  Local host:              psid03
  Local adapter:           mlx5_0
  Local port:              1

--------------------------------------------------------------------------
--------------------------------------------------------------------------
WARNING: There was an error initializing an OpenFabrics device.

  Local host:   psid03
  Local device: mlx5_0
--------------------------------------------------------------------------


           ************************************************************
           *        Program running with 20 parallel MPI-processes    *
           *              working on a common directory               *
           ************************************************************

------------------------------------------------------------------------------
                              ORCA PROPERTY CALCULATIONS
------------------------------------------------------------------------------

GBWName                                 ... EMC.gbw
Number of atoms                         ...     15
Number of basis functions               ...    265
Max core memory                         ...   5000 MB

Electric properties:
Dipole moment                           ... YES
Quadrupole moment                       ...  NO
Static polarizability (Dipole/Dipole)   ...  NO
Static polarizability (Dipole/Quad.)    ...  NO
Static polarizability (Quad./Quad.)     ...  NO
Static polarizability (Velocity)        ...  NO

Atomic electric properties:
Dipole moment                           ...  NO
Quadrupole moment                       ...  NO
Static polarizability                   ...  NO

Choice of electric origin               ... Center of mass
Position of electric origin             ...    -0.029215    -0.007544    -0.000585

General magnetic properties:
Magnetizability                         ...  NO

EPR properties:
g-Tensor (aka g-matrix)                 ...  NO
Zero-Field splitting spin-orbit         ...  NO
Zero-field splitting spin-spin          ...  NO
Hyperfine couplings                     ...  NO (   0 nuclei)
Quadrupole couplings                    ...  NO (   0 nuclei)
Contact density                         ...  NO (   0 nuclei)

NMR properties:
Chemical shifts                         ...  NO (   0 nuclei)
Spin-rotation constants                 ...  NO (   0 nuclei)
Spin-spin couplings                     ...  NO (   0 nuclei,    0 pairs)

Choice of magnetic origin               ... GIAO
Position of magnetic origin             ...     0.000000     0.000000     0.000000

Properties with geometric perturbations:
SCF Hessian                             ...  NO
IR spectrum                             ...  NO
VCD spectrum                            ...  NO
X-ray spectroscopy properties:
SCF XES/XAS/RIXS spectra                ...  NO


-------------
DIPOLE MOMENT
-------------

Method             : SCF
Type of density    : Electron Density
Multiplicity       :   1
Irrep              :   0
Energy             :  -382.8839263575026735 Eh
Relativity type    : 
Basis              : AO
                                X                 Y                 Z
Electronic contribution:     -3.895948399       0.161600795       0.000194733
Nuclear contribution   :      4.023201887      -0.376184533      -0.000065788
                        -----------------------------------------
Total Dipole Moment    :      0.127253489      -0.214583738       0.000128945
                        -----------------------------------------
Magnitude (a.u.)       :      0.249478752
Magnitude (Debye)      :      0.634124593



--------------------
Rotational spectrum 
--------------------
 
Rotational constants in cm-1:             0.284842             0.044788             0.039563 
Rotational constants in MHz :          8539.349709          1342.710893          1186.078753 

Dipole components along the rotational axes: 
x,y,z [a.u.] :     0.127889    -0.214206     0.000024 
x,y,z [Debye]:     0.325068    -0.544467     0.000061 

 

Dipole moment calculation done in   0.0 sec 

Maximum memory used throughout the entire PROP-calculation: 12.8 MB
[psid03:96651] 19 more processes have sent help message help-mpi-btl-openib.txt / ib port not selected
[psid03:96651] Set MCA parameter "orte_base_help_aggregate" to 0 to see all help / error messages
[psid03:96651] 19 more processes have sent help message help-mpi-btl-openib.txt / error in device init
--------------------------------------------------------------------------
By default, for Open MPI 4.0 and later, infiniband ports on a device
are not used by default.  The intent is to use UCX for these devices.
You can override this policy by setting the btl_openib_allow_ib MCA parameter
to true.

  Local host:              psid03
  Local adapter:           mlx5_0
  Local port:              1

--------------------------------------------------------------------------
--------------------------------------------------------------------------
WARNING: There was an error initializing an OpenFabrics device.

  Local host:   psid03
  Local device: mlx5_0
--------------------------------------------------------------------------
[psid03:96715] 19 more processes have sent help message help-mpi-btl-openib.txt / ib port not selected
[psid03:96715] Set MCA parameter "orte_base_help_aggregate" to 0 to see all help / error messages
[psid03:96715] 19 more processes have sent help message help-mpi-btl-openib.txt / error in device init

--------------------------------
SUGGESTED CITATIONS FOR THIS RUN
--------------------------------

Below you find a list of papers that are relevant to this ORCA run
We neither can nor want to force you to cite these papers, but we appreciate if you do
You receive ORCA, which is the product of decades of hard work by many enthusiastic individuals, for free
The only thing we kindly ask in return is that you cite our papers,
We deeply appreciate it, if you show your appreciation for ORCA by not just citing the generic ORCA reference.

Please note that relegating all ORCA citations to the supporting information does *not* help us.
SI sections are not indexed - citations you put there will not count into any citation statistics
But we need these citations in order to attract the funding resources that allow us to do what we are doing

Therefore, if you are a happy ORCA user, please consider citing a few of the papers listed below in the main body of your paper

In addition to the list printed below, the program has created the file EMC.bibtex that contains the list in bibtex format
You can import this file easily into all common literature databanks and citation aid programs


List of essential papers. We consider these as the minimum necessary citations

  1. Neese,F.
     Software update: the ORCA program system, version 5.0
     WIRES Comput. Molec. Sci., 2022 12(1)e1606
     doi.org/10.1002/wcms.1606

List of papers to cite with high priority. The work reported in these papers was absolutely
necessary for this run to complete.
Our perspective: the developers of density functionals and basis sets usually get cited in chemistry papers
Good! But without the algorithms to do something with them, the functionals or basis sets would not do anything.
Hence, in our opinion, the algorithm design and method developments papers are equally worthy of getting cited

  1. Neese,F.
     An improvement of the resolution of the identity approximation for the formation of the Coulomb matrix
     J. Comp. Chem., 2003 24(14)1740-1747
     doi.org/10.1002/jcc.10318
  2. Neese,F.; Wennmohs,F.; Hansen,A.; Becker,U.
     Efficient, approximate and parallel Hartree-Fock and hybrid DFT calculations. A 'chain-of-spheres' algorithm for the Hartree-Fock exchange
     Chem. Phys., 2009 356(1-3)98-109
     doi.org/10.1016/j.chemphys.2008.10.036
  3. Helmich-Paris,B.; de Souza,B.; Neese,F.; Izsák,R.
     An improved chain of spheres for exchange algorithm
     J. Chem. Phys., 2021 155 104109
     doi.org/doi: 10.1063/5.0058766.
  4. Neese,F.
     The SHARK Integral Generation and Digestion System
     J. Comp. Chem., 2022  1-16
     doi.org/10.1002/jcc.26942

List of suggested additional citations. These are papers that are important in the 'surrounding' of 
of this run, or papers that preceded the highly important papers. If you like your results we are grateful for a citation.

  1. Izsak,R.; Neese,F.
     An overlap fitted chain of spheres exchange method
     J. Chem. Phys., 2011 135 144105
     doi.org/10.1063/1.3646921
  2. Izsak,R.; Hansen,A.; Neese,F.
     The resolution of identity and chain of spheres approximations for the LPNO-CCSD singles Fock term
     Molec. Phys., 2012 110 2413-2417
     doi.org/10.1080/00268976.2012.687466
  3. Neese,F.
     The ORCA program system
     WIRES Comput. Molec. Sci., 2012 2(1)73-78
     doi.org/10.1002/wcms.81
  4. Izsak,R.; Neese,F.; Klopper,W.
     Robust fitting techniques in the chain of spheres approximation to the Fock exchange: The role of the complementary space
     J. Chem. Phys., 2013 139 
     doi.org/10.1063/1.4819264
  5. Neese,F.
     Software update: the ORCA program system, version 4.0
     WIRES Comput. Molec. Sci., 2018 8(1)1-6
     doi.org/10.1002/wcms.1327
  6. Neese,F.; Wennmohs,F.; Becker,U.; Riplinger,C.
     The ORCA quantum chemistry program package
     J. Chem. Phys., 2020 152 Art. No. L224108
     doi.org/10.1063/5.0004608

List of optional additional citations

  1. Neese,F.
     Approximate second-order SCF convergence for spin unrestricted wavefunctions
     Chem. Phys. Lett., 2000 325(1-3)93-98
     doi.org/10.1016/s0009-2614(00)00662-x

Timings for individual modules:

Sum of individual times          ...       87.564 sec (=   1.459 min)
Startup calculation              ...       12.895 sec (=   0.215 min)  14.7 %
SCF iterations                   ...       48.928 sec (=   0.815 min)  55.9 %
Property calculations            ...        0.642 sec (=   0.011 min)   0.7 %
SCF Gradient evaluation          ...       25.037 sec (=   0.417 min)  28.6 %
Geometry relaxation              ...        0.061 sec (=   0.001 min)   0.1 %
                             ****ORCA TERMINATED NORMALLY****
TOTAL RUN TIME: 0 days 0 hours 1 minutes 36 seconds 262 msec
