
                                 *****************
                                 * O   R   C   A *
                                 *****************

                                            #,                                       
                                            ###                                      
                                            ####                                     
                                            #####                                    
                                            ######                                   
                                           ########,                                 
                                     ,,################,,,,,                         
                               ,,#################################,,                 
                          ,,##########################################,,             
                       ,#########################################, ''#####,          
                    ,#############################################,,   '####,        
                  ,##################################################,,,,####,       
                ,###########''''           ''''###############################       
              ,#####''   ,,,,##########,,,,          '''####'''          '####       
            ,##' ,,,,###########################,,,                        '##       
           ' ,,###''''                  '''############,,,                           
         ,,##''                                '''############,,,,        ,,,,,,###''
      ,#''                                            '''#######################'''  
     '                                                          ''''####''''         
             ,#######,   #######,   ,#######,      ##                                
            ,#'     '#,  ##    ##  ,#'     '#,    #''#        ,####,   ,####,        
            ##       ##  ##   ,#'  ##            #'  '#       #'       #'  '#        
            ##       ##  #######   ##           ,######,      #####,   #    #        
            '#,     ,#'  ##    ##  '#,     ,#' ,#      #,     #,   #   #,  ,#        
             '#######'   ##     ##  '#######'  #'      '#     '####' # '####'        



                #########################################################
                #                        -***-                          #
                #          Department of theory and spectroscopy        #
                #                                                       #
                #                      Frank Neese                      #
                #                                                       #
                #     Directorship, Architecture, Infrastructure        #
                #                    SHARK, DRIVERS                     #
                #        Core code/Algorithms in most modules           #
                #                                                       #
                #        Max Planck Institute fuer Kohlenforschung      #
                #                Kaiser Wilhelm Platz 1                 #
                #                 D-45470 Muelheim/Ruhr                 #
                #                      Germany                          #
                #                                                       #
                #                  All rights reserved                  #
                #                        -***-                          #
                #########################################################


                         Program Version 6.0.1  -  RELEASE   -


 With contributions from (in alphabetic order):
[Max-Planck-Institut fuer Kohlenforschung]                               
  Daniel Aravena         : Magnetic Suceptibility                        
  Michael Atanasov       : Ab Initio Ligand Field Theory (pilot matlab implementation)
  Alexander A. Auer      : GIAO ZORA, VPT2 properties, NMR spectrum      
  Ute Becker             : All parallelization in ORCA, NUMFREQ, NUMCALC 
  Giovanni Bistoni       : ED, misc. LED, open-shell LED, HFLD           
  Martin Brehm           : Molecular dynamics                            
  Dmytro Bykov           : pre 5.0 version of the SCF Hessian            
  Marcos Casanova-Páez   : Triplet and SCS-CIS(D). UHF-(DLPNO)-IP/EA/STEOM-CCSD. UHF-CVS-IP/STEOM-CCSD   
  Vijay G. Chilkuri      : MRCI spin determinant printing, contributions to CSF-ICE 
  Pauline Colinet        : FMM embedding                                 
  Dipayan Datta          : RHF DLPNO-CCSD density                        
  Achintya Kumar Dutta   : EOM-CC, STEOM-CC                              
  Nicolas Foglia         : Exact transition moments, OPA infrastructure, MCD improvements    
  Dmitry Ganyushin       : Spin-Orbit,Spin-Spin,Magnetic field MRCI      
  Miquel Garcia-Rates    : C-PCM and meta-GGA Hessian, CCSD/C-PCM, Gaussian charge scheme 
  Tiago L. C. Gouveia    : GS-ROHF, GS-ROCIS                             
  Yang Guo               : DLPNO-NEVPT2, F12-NEVPT2, CIM, IAO-localization        
  Andreas Hansen         : Spin unrestricted coupled pair/coupled cluster methods 
  Ingolf Harden          : AUTO-CI MPn and infrastructure                
  Benjamin Helmich-Paris : MC-RPA, TRAH-(SCF,CASSCF), AVAS, COSX integrals, SCF dyn. polar. 
  Lee Huntington         : MR-EOM, pCC                                   
  Robert Izsak           : Overlap fitted RIJCOSX, COSX-SCS-MP3, EOM     
  Riya Kayal             : Wick's Theorem for AUTO-CI, AUTO-CI UHF-CCSDT 
  Emily Kempfer          : AUTO-CI, RHF CISDT and CCSDT                  
  Christian Kollmar      : KDIIS, OOCD, Brueckner-CCSD(T), CCSD density, CASPT2, CASPT2-K, improved NEVPT2 
  Axel Koslowski         : Symmetry handling                             
  Simone Kossmann        : meta-GGA functionals, TD-DFT gradient, OOMP2, (MP2 Hessian; deprecated post 5.0) 
  Lucas Lang             : DCDCAS                                        
  Marvin Lechner         : AUTO-CI (C++ implementation), FIC-MRCC        
  Spencer Leger          : CASSCF response                               
  Dagmar Lenk            : GEPOL surface, SMD, ORCA-2-JSON               
  Dimitrios Liakos       : Extrapolation schemes; Compound Job, initial MDCI parallelization 
  Dimitrios Manganas     : Further ROCIS development; embedding schemes. LFT, Crystal Embedding 
  Dimitrios Pantazis     : SARC Basis sets                               
  Anastasios Papadopoulos: AUTO-CI, single reference methods and gradients 
  Taras Petrenko         : pre 6.0 DFT Hessian and TD-DFT gradient, (ASA, deprecated), ECA, 1-Electron XAS/XES, NRVS 
  Peter Pinski           : DLPNO-MP2, DLPNO-MP2 Gradient                 
  Christoph Reimann      : Effective Core Potentials                     
  Marius Retegan         : Local ZFS, SOC                                
  Christoph Riplinger    : Optimizer, TS searches, QM/MM, DLPNO-CCSD(T), (RO)-DLPNO pert. Triples 
  Michael Roemelt        : Original ROCIS implementation                 
  Masaaki Saitow         : Open-shell DLPNO-CCSD energy and density      
  Barbara Sandhoefer     : DKH picture change effects                    
  Kantharuban Sivalingam : CASSCF convergence/infrastructure, NEVPT2 and variants, FIC-MRCI 
  Bernardo de Souza      : ESD, SOC TD-DFT                               
  Georgi L. Stoychev     : AutoAux, RI-MP2 NMR, DLPNO-MP2 response, X2C  
  Van Anh Tran           : RI-MP2 g-tensors                              
  Willem Van den Heuvel  : Paramagnetic NMR                              
  Zikuan Wang            : NOTCH, Electric field optimization            
  Frank Wennmohs         : Technical directorship and infrastructure     
  Hang Xu                : AUTO-CI-Response properties                   
                                                                         
[FACCTs GmbH]                                                            
  Markus Bursch, Miquel Garcia-Rates, Christoph Riplinger, Bernardo de Souza, Georgi L. Stoychev 
                                                                 
  APM, Basis sets (HGBS, AHGBS, def-TZVP (Ac-Lr), def2-XVPD (La-Lu)), CI-OPT, improved COSX, DLPNO-Multilevel,           
  DOCKER, DRACO, updates on ESD, GOAT, IRC, LR-CPCM, MBIS, meta-GGA TD-DFT gradient, ML-optimized integration grids, 
  MM, NACMEs, nearIR, NEB, NEB-TS, NL-DFT gradient (VV10), 2- and 3-layer-ONIOM, interface openCOSMO-RS, QMMM,   
  Crystal-QMMM, SF, symmetry and pop. for TD-DFT, r2SCAN hybrids, SOLVATOR                                   
                                                                         
[Other institutions]                                                     
  V. Asgeirsson          : NEB                                           
  Christoph Bannwarth    : sTDA-DFT, sTD-DFT, PBEh-3c, B97-3c, D3        
  Sebastian Ehlert       : rSCAN, r2SCAN, r2SCAN-3c, D4, dhf basis sets  
  Marvin Friede          : D4 for Fr, Ra, Ac-Lr                          
  Lars Goerigk           : TD-DFT with DH, B97 family of functionals     
  Stefan Grimme          : VdW corrections, initial TS optimization, DFT functionals, gCP, sTDA/sTD-DF 
  Waldemar Hujo          : DFT-NL                                        
  H. Jonsson             : NEB                                           
  Holger Kruse           : gCP                                           
  Marcel Mueller         : wB97X-3c, vDZP basis set                      
  Hagen Neugebauer       : wr2SCAN                                       
  Tobias Risthaus        : range-separated hybrid DFT                    
  Lukas Wittmann         : regularized MP2, r2SCAN double-hybrids, wr2SCAN        
                                                                         
We gratefully acknowledge several colleagues who have allowed us to      
interface, adapt or use parts of their codes:                            
  Ed Valeev, F. Pavosevic, A. Kumar             : LibInt (2-el integral package), F12 methods 
  Garnet Chan, S. Sharma, J. Yang, R. Olivares  : DMRG                   
  Ulf Ekstrom                                   : XCFun DFT Library      
  Mihaly Kallay                                 : mrcc  (arbitrary order and MRCC methods)
  Frank Weinhold                                : gennbo (NPA and NBO analysis)           
  Simon Mueller                                 : openCOSMO-RS                            
  Christopher J. Cramer and Donald G. Truhlar   : smd solvation model                     
  S Lehtola, MJT Oliveira, MAL Marques          : LibXC Library                           
  Liviu Ungur et al                             : ANISO software                          


 Your calculation uses the libint2 library for the computation of 2-el integrals
 For citations please refer to: http://libint.valeyev.net

 Your ORCA version has been built with support for libXC version: 6.2.2
 For citations please refer to: https://libxc.gitlab.io

 This ORCA versions uses:
   CBLAS   interface :  Fast vector & matrix operations
   LAPACKE interface :  Fast linear algebra routines
   SCALAPACK package :  Parallel linear algebra routines
   Shared memory     :  Shared parallel matrices
   BLAS/LAPACK       :  OpenBLAS 0.3.27  USE64BITINT DYNAMIC_ARCH NO_AFFINITY SkylakeX SINGLE_THREADED
        Core in use  :  SkylakeX
   Copyright (c) 2011-2014, The OpenBLAS Project


NOTE: MaxCore=5000 MB was set to SCF,MP2,MDCI,CIPSI,MRCI and CIS
      => If you want to overwrite this, your respective input block should be placed after the MaxCore statement
Warning: RI is on but no J-basis has been assigned. Assigning Def2/J (nothing to worry about!)
================================================================================

----- Orbital basis set information -----
Your calculation utilizes the basis: def2-TZVP
   F. Weigend and R. Ahlrichs, Phys. Chem. Chem. Phys. 7, 3297 (2005).

----- AuxJ basis set information -----
Your calculation utilizes the auxiliary basis: def2/J
   F. Weigend, Phys. Chem. Chem. Phys. 8, 1057 (2006).

================================================================================
                                        WARNINGS
                       Please study these warnings very carefully!
================================================================================

WARNING: Old DensityContainer found on disk!
         Will remove this file - 
         If you want to keep old densities, please start your calculation with a different basename. 


WARNING: Geometry Optimization
  ===> : Switching off AutoStart
         For restart on a previous wavefunction, please use MOREAD

================================================================================
                                       INPUT FILE
================================================================================
NAME = EMC.inp
|  1> ! Opt B3LYP def2-TZVP TightSCF TightOpt CPCM(water)
|  2> 
|  3> %maxcore 5000
|  4> 
|  5> %pal
|  6> nprocs 20
|  7> end
|  8> 
|  9> * xyz 0 1
| 10> O          0.68030       -0.45370        0.00050
| 11> O         -1.49990       -0.77980        0.00030
| 12> O         -0.70930        1.38540        0.00010
| 13> C          1.82450        0.40650       -0.00030
| 14> C          3.07860       -0.44140       -0.00030
| 15> C         -0.52830        0.17520        0.00060
| 16> C         -2.84580       -0.29220       -0.00070
| 17> H          1.80520        1.03900       -0.89490
| 18> H          1.80570        1.03980        0.89370
| 19> H          3.97460        0.18570       -0.00090
| 20> H          3.10340       -1.09290        0.87950
| 21> H          3.10290       -1.09360       -0.87950
| 22> H         -3.03430        0.30100        0.89920
| 23> H         -3.51930       -1.15330       -0.00080
| 24> H         -3.03320        0.30050       -0.90120
| 25> *
| 26> 
| 27>                          ****END OF INPUT****
================================================================================

                       *****************************
                       * Geometry Optimization Run *
                       *****************************

Geometry optimization settings:
Update method            Update   .... BFGS
Choice of coordinates    CoordSys .... (2022) Redundant Internals
Initial Hessian          InHess   .... Almloef's Model
Max. no of cycles        MaxIter  .... 50

Convergence Tolerances:
Energy Change            TolE     ....  1.0000e-06 Eh
Max. Gradient            TolMAXG  ....  1.0000e-04 Eh/bohr
RMS Gradient             TolRMSG  ....  3.0000e-05 Eh/bohr
Max. Displacement        TolMAXD  ....  1.0000e-03 bohr
RMS Displacement         TolRMSD  ....  6.0000e-04 bohr
Strict Convergence                .... False

------------------------------------------------------------------------------
                        ORCA OPTIMIZATION COORDINATE SETUP
------------------------------------------------------------------------------

The optimization will be done in redundant internal coordinates (2022)
Making redundant internal coordinates   ...  (2022 redundants) done
Evaluating the initial hessian          ...  (Almloef) done
Evaluating the coordinates              ...  done
Calculating the B-matrix                .... done
Calculating the G-matrix                .... done
Diagonalizing the G-matrix              .... done
Small eigenvalue found = 1.643e-02
The first mode is                       ....   14
The number of degrees of freedom        ....   39

    -----------------------------------------------------------------
                    Redundant Internal Coordinates


    -----------------------------------------------------------------
         Definition                    Initial Value    Approx d2E/dq
    -----------------------------------------------------------------
      1. B(C   3,O   0)                  1.4315         0.480502   
      2. B(C   4,C   3)                  1.5138         0.396429   
      3. B(C   5,O   0)                  1.3624         0.619232   
      4. B(C   5,O   2)                  1.2237         1.031002   
      5. B(C   5,O   1)                  1.3624         0.619397   
      6. B(C   6,O   1)                  1.4315         0.480463   
      7. B(H   7,C   3)                  1.0958         0.352532   
      8. B(H   8,C   3)                  1.0957         0.352579   
      9. B(H   9,C   4)                  1.0937         0.355303   
     10. B(H  10,C   4)                  1.0950         0.353492   
     11. B(H  11,C   4)                  1.0950         0.353592   
     12. B(H  12,C   6)                  1.0942         0.354607   
     13. B(H  13,C   6)                  1.0932         0.355886   
     14. B(H  14,C   6)                  1.0942         0.354564   
     15. A(C   3,O   0,C   5)          115.5741         0.409294   
     16. A(C   5,O   1,C   6)          115.5789         0.409307   
     17. A(C   4,C   3,H   8)          109.7508         0.326366   
     18. A(O   0,C   3,H   8)          109.4593         0.334887   
     19. A(C   4,C   3,H   7)          109.7483         0.326359   
     20. A(H   7,C   3,H   8)          109.4011         0.288914   
     21. A(O   0,C   3,H   7)          109.4652         0.334880   
     22. A(O   0,C   3,C   4)          109.0017         0.380943   
     23. A(H   9,C   4,H  10)          108.8465         0.289386   
     24. A(C   3,C   4,H  10)          110.6094         0.326505   
     25. A(C   3,C   4,H   9)          110.9495         0.326780   
     26. A(H  10,C   4,H  11)          106.8724         0.289167   
     27. A(H   9,C   4,H  11)          108.8393         0.289399   
     28. A(C   3,C   4,H  11)          110.6097         0.326520   
     29. A(O   0,C   5,O   1)          108.0033         0.428241   
     30. A(O   1,C   5,O   2)          126.0001         0.469733   
     31. A(O   0,C   5,O   2)          125.9966         0.469710   
     32. A(H  12,C   6,H  14)          110.7122         0.289434   
     33. A(O   1,C   6,H  14)          110.2490         0.335195   
     34. A(H  12,C   6,H  13)          108.7219         0.289603   
     35. A(O   1,C   6,H  13)          108.1156         0.335403   
     36. A(H  13,C   6,H  14)          108.7279         0.289598   
     37. A(O   1,C   6,H  12)          110.2466         0.335202   
     38. D(C   4,C   3,O   0,C   5)    179.9996         0.018214   
     39. D(H   8,C   3,O   0,C   5)     59.9515         0.018214   
     40. D(H   7,C   3,O   0,C   5)    -59.9517         0.018214   
     41. D(H   9,C   4,C   3,H   8)    -60.1318         0.012477   
     42. D(H   9,C   4,C   3,H   7)     60.1265         0.012477   
     43. D(H  10,C   4,C   3,O   0)    -59.1007         0.012477   
     44. D(H  10,C   4,C   3,H   8)     60.7673         0.012477   
     45. D(H  10,C   4,C   3,H   7)   -178.9744         0.012477   
     46. D(H   9,C   4,C   3,O   0)   -179.9998         0.012477   
     47. D(O   2,C   5,O   1,C   6)      0.0002         0.028144   
     48. D(O   0,C   5,O   1,C   6)   -179.9531         0.028144   
     49. D(O   2,C   5,O   0,C   3)     -0.0015         0.028128   
     50. D(O   1,C   5,O   0,C   3)    179.9519         0.028128   
     51. D(H  13,C   6,O   1,C   5)   -179.9976         0.018211   
     52. D(H  12,C   6,O   1,C   5)    -61.2712         0.018211   
     53. D(H  14,C   6,O   1,C   5)     61.2674         0.018211   
    -----------------------------------------------------------------

Number of atoms                         .... 15
Number of degrees of freedom            .... 53


         *************************************************************
         *                GEOMETRY OPTIMIZATION CYCLE   1            *
         *************************************************************
---------------------------------
CARTESIAN COORDINATES (ANGSTROEM)
---------------------------------
  O      0.680300   -0.453700    0.000500
  O     -1.499900   -0.779800    0.000300
  O     -0.709300    1.385400    0.000100
  C      1.824500    0.406500   -0.000300
  C      3.078600   -0.441400   -0.000300
  C     -0.528300    0.175200    0.000600
  C     -2.845800   -0.292200   -0.000700
  H      1.805200    1.039000   -0.894900
  H      1.805700    1.039800    0.893700
  H      3.974600    0.185700   -0.000900
  H      3.103400   -1.092900    0.879500
  H      3.102900   -1.093600   -0.879500
  H     -3.034300    0.301000    0.899200
  H     -3.519300   -1.153300   -0.000800
  H     -3.033200    0.300500   -0.901200

----------------------------
CARTESIAN COORDINATES (A.U.)
----------------------------
  NO LB      ZA    FRAG     MASS         X           Y           Z
   0 O     8.0000    0    15.999    1.285581   -0.857369    0.000945
   1 O     8.0000    0    15.999   -2.834400   -1.473608    0.000567
   2 O     8.0000    0    15.999   -1.340383    2.618027    0.000189
   3 C     6.0000    0    12.011    3.447805    0.768174   -0.000567
   4 C     6.0000    0    12.011    5.817711   -0.834125   -0.000567
   5 C     6.0000    0    12.011   -0.998342    0.331080    0.001134
   6 C     6.0000    0    12.011   -5.377783   -0.552178   -0.001323
   7 H     1.0000    0     1.008    3.411334    1.963425   -1.691116
   8 H     1.0000    0     1.008    3.412278    1.964937    1.688848
   9 H     1.0000    0     1.008    7.510905    0.350922   -0.001701
  10 H     1.0000    0     1.008    5.864576   -2.065282    1.662014
  11 H     1.0000    0     1.008    5.863631   -2.066605   -1.662014
  12 H     1.0000    0     1.008   -5.733996    0.568808    1.699242
  13 H     1.0000    0     1.008   -6.650513   -2.179421   -0.001512
  14 H     1.0000    0     1.008   -5.731917    0.567863   -1.703021

--------------------------------
INTERNAL COORDINATES (ANGSTROEM)
--------------------------------
 O      0   0   0     0.000000000000     0.00000000     0.00000000
 O      1   0   0     2.204453059151     0.00000000     0.00000000
 O      2   1   0     2.305024824161    61.43400541     0.00000000
 C      1   2   3     1.431481162992   151.57129888   359.93162759
 C      4   1   2     1.513836589596   109.00173794   180.05904218
 C      3   2   1     1.223660610627    28.56536265   359.96879481
 C      2   1   3     1.431503255323   151.57840457     0.06599800
 H      4   1   2     1.095781866979   109.46523189   300.10766261
 H      4   1   2     1.095745558969   109.45929276    60.01087239
 H      5   4   1     1.093650204590   110.94954896   180.00020713
 H      5   4   1     1.095041245799   110.60944835   300.89927902
 H      5   4   1     1.094964825919   110.60971429    59.10997812
 H      7   2   1     1.094183942489   110.24663817   298.67094769
 H      7   2   1     1.093204221543   108.11563743   179.94454349
 H      7   2   1     1.094217665732   110.24895420    61.20955244

---------------------------
INTERNAL COORDINATES (A.U.)
---------------------------
 O      0   0   0     0.000000000000     0.00000000     0.00000000
 O      1   0   0     4.165812556880     0.00000000     0.00000000
 O      2   1   0     4.355865649555    61.43400541     0.00000000
 C      1   2   3     2.705107363921   151.57129888   359.93162759
 C      4   1   2     2.860736565846   109.00173794   180.05904218
 C      3   2   1     2.312383434952    28.56536265   359.96879481
 C      2   1   3     2.705149112377   151.57840457     0.06599800
 H      4   1   2     2.070727631107   109.46523189   300.10766261
 H      4   1   2     2.070659018912   109.45929276    60.01087239
 H      5   4   1     2.066699372982   110.94954896   180.00020713
 H      5   4   1     2.069328059907   110.60944835   300.89927902
 H      5   4   1     2.069183647264   110.60971429    59.10997812
 H      7   2   1     2.067707991438   110.24663817   298.67094769
 H      7   2   1     2.065856587163   108.11563743   179.94454349
 H      7   2   1     2.067771719132   110.24895420    61.20955244

---------------------
BASIS SET INFORMATION
---------------------
There are 3 groups of distinct atoms

 Group   1 Type O   : 11s6p2d1f contracted to 5s3p2d1f pattern {62111/411/11/1}
 Group   2 Type C   : 11s6p2d1f contracted to 5s3p2d1f pattern {62111/411/11/1}
 Group   3 Type H   : 5s1p contracted to 3s1p pattern {311/1}

Atom   0O    basis set group =>   1
Atom   1O    basis set group =>   1
Atom   2O    basis set group =>   1
Atom   3C    basis set group =>   2
Atom   4C    basis set group =>   2
Atom   5C    basis set group =>   2
Atom   6C    basis set group =>   2
Atom   7H    basis set group =>   3
Atom   8H    basis set group =>   3
Atom   9H    basis set group =>   3
Atom  10H    basis set group =>   3
Atom  11H    basis set group =>   3
Atom  12H    basis set group =>   3
Atom  13H    basis set group =>   3
Atom  14H    basis set group =>   3
---------------------------------
AUXILIARY/J BASIS SET INFORMATION
---------------------------------
There are 3 groups of distinct atoms

 Group   1 Type O   : 12s5p4d2f1g contracted to 6s4p3d1f1g pattern {711111/2111/211/2/1}
 Group   2 Type C   : 12s5p4d2f1g contracted to 6s4p3d1f1g pattern {711111/2111/211/2/1}
 Group   3 Type H   : 5s2p1d contracted to 3s1p1d pattern {311/2/1}

Atom   0O    basis set group =>   1
Atom   1O    basis set group =>   1
Atom   2O    basis set group =>   1
Atom   3C    basis set group =>   2
Atom   4C    basis set group =>   2
Atom   5C    basis set group =>   2
Atom   6C    basis set group =>   2
Atom   7H    basis set group =>   3
Atom   8H    basis set group =>   3
Atom   9H    basis set group =>   3
Atom  10H    basis set group =>   3
Atom  11H    basis set group =>   3
Atom  12H    basis set group =>   3
Atom  13H    basis set group =>   3
Atom  14H    basis set group =>   3
--------------------------------------------------------------------------
WARNING: There was an error initializing an OpenFabrics device.

  Local host:   ga00
  Local device: mlx5_0
--------------------------------------------------------------------------


           ************************************************************
           *        Program running with 20 parallel MPI-processes    *
           *              working on a common directory               *
           ************************************************************
------------------------------------------------------------------------------
                             ORCA STARTUP CALCULATIONS
                           -- RI-GTO INTEGRALS CHOSEN --
------------------------------------------------------------------------------
------------------------------------------------------------------------------
                   ___                                                        
                  /   \      - P O W E R E D   B Y -                         
                 /     \                                                     
                 |  |  |   _    _      __       _____    __    __             
                 |  |  |  | |  | |    /  \     |  _  \  |  |  /  |          
                  \  \/   | |  | |   /    \    | | | |  |  | /  /          
                 / \  \   | |__| |  /  /\  \   | |_| |  |  |/  /          
                |  |  |   |  __  | /  /__\  \  |    /   |      \           
                |  |  |   | |  | | |   __   |  |    \   |  |\   \          
                \     /   | |  | | |  |  |  |  | |\  \  |  | \   \       
                 \___/    |_|  |_| |__|  |__|  |_| \__\ |__|  \__/        
                                                                              
                      - O R C A' S   B I G   F R I E N D -                    
                                      &                                       
                       - I N T E G R A L  F E E D E R -                       
                                                                              
 v1 FN, 2020, v2 2021, v3 2022-2024                                           
------------------------------------------------------------------------------


----------------------
SHARK INTEGRAL PACKAGE
----------------------

Number of atoms                             ...     15
Number of basis functions                   ...    265
Number of shells                            ...    109
Maximum angular momentum                    ...      3
Integral batch strategy                     ... SHARK/LIBINT Hybrid
RI-J (if used) integral strategy            ... SPLIT-RIJ (Revised 2003 algorithm where possible)
Printlevel                                  ...      1
Contraction scheme used                     ... SEGMENTED contraction
Prescreening option                         ... SCHWARTZ
   Thresh                                   ... 2.500e-11
   Tcut                                     ... 2.500e-12
   Tpresel                                  ... 2.500e-12 
Coulomb Range Separation                    ... NOT USED
Exchange Range Separation                   ... NOT USED
Multipole approximations                    ... NOT USED
Finite Nucleus Model                        ... NOT USED
CABS basis                                  ... NOT available
Auxiliary Coulomb fitting basis             ... AVAILABLE
   # of basis functions in Aux-J            ...    431
   # of shells in Aux-J                     ...    145
   Maximum angular momentum in Aux-J        ...      4
Auxiliary J/K fitting basis                 ... NOT available
Auxiliary Correlation fitting basis         ... NOT available
Auxiliary 'external' fitting basis          ... NOT available

Checking pre-screening integrals            ... done (  0.0 sec) Dimension = 109
Check shell pair data                       ... done (  0.0 sec)
Shell pair information
Shell pair cut-off parameter TPreSel        ...   2.5e-12
Total number of shell pairs                 ...      5995
Shell pairs after pre-screening             ...      5239
Total number of primitive shell pairs       ...     17944
Primitive shell pairs kept                  ...     11817
          la=0 lb=0:   1502 shell pairs
          la=1 lb=0:   1499 shell pairs
          la=1 lb=1:    395 shell pairs
          la=2 lb=0:    721 shell pairs
          la=2 lb=1:    372 shell pairs
          la=2 lb=2:    100 shell pairs
          la=3 lb=0:    354 shell pairs
          la=3 lb=1:    180 shell pairs
          la=3 lb=2:     90 shell pairs
          la=3 lb=3:     26 shell pairs

Calculating one electron integrals          ... done (  0.0 sec)
Calculating RI/J V-Matrix + Cholesky decomp.... done (  0.0 sec)
Calculating Nuclear repulsion               ... done (  0.0 sec) ENN=    316.737958484473 Eh

Diagonalization of the overlap matrix:
Smallest eigenvalue                        ... 4.500e-04
Time for diagonalization                   ...    0.006 sec
Threshold for overlap eigenvalues          ... 1.000e-07
Number of eigenvalues below threshold      ... 0
Time for construction of square roots      ...    0.003 sec
Total time needed                          ...    0.010 sec

-------------------
DFT GRID GENERATION
-------------------

General Integration Accuracy     IntAcc      ... 4.388
Radial Grid Type                 RadialGrid  ... OptM3 with GC (2021)
Angular Grid (max. ang.)         AngularGrid ... 4 (Lebedev-302)
Angular grid pruning method      GridPruning ... 4 (adaptive)
Weight generation scheme         WeightScheme... mBecke (2022)
Basis function cutoff            BFCut       ... 1.0000e-11
Integration weight cutoff        WCut        ... 1.0000e-14
Partially contracted basis set               ... off
Rotationally invariant grid construction     ... off
Angular grids for H and He will be reduced by one unit

Total number of grid points                  ...    68328
Total number of batches                      ...     1075
Average number of points per batch           ...       63
Average number of grid points per atom       ...     4555

--------------------
COSX GRID GENERATION
--------------------

GRIDX 1
-------
General Integration Accuracy     IntAcc      ... 3.816
Radial Grid Type                 RadialGrid  ... OptM3 with GC (2021)
Angular Grid (max. ang.)         AngularGrid ... 1 (Lebedev-50)
Angular grid pruning method      GridPruning ... 4 (adaptive)
Weight generation scheme         WeightScheme... mBecke (2022)
Basis function cutoff            BFCut       ... 1.0000e-11
Integration weight cutoff        WCut        ... 1.0000e-14
Partially contracted basis set               ... on
Rotationally invariant grid construction     ... off
Angular grids for H and He will be reduced by one unit

Total number of grid points                  ...     8750
Total number of batches                      ...       79
Average number of points per batch           ...      110
Average number of grid points per atom       ...      583
UseSFitting                                  ... on

GRIDX 2
-------
General Integration Accuracy     IntAcc      ... 4.020
Radial Grid Type                 RadialGrid  ... OptM3 with GC (2021)
Angular Grid (max. ang.)         AngularGrid ... 2 (Lebedev-110)
Angular grid pruning method      GridPruning ... 4 (adaptive)
Weight generation scheme         WeightScheme... mBecke (2022)
Basis function cutoff            BFCut       ... 1.0000e-11
Integration weight cutoff        WCut        ... 1.0000e-14
Partially contracted basis set               ... on
Rotationally invariant grid construction     ... off
Angular grids for H and He will be reduced by one unit

Total number of grid points                  ...    18972
Total number of batches                      ...      156
Average number of points per batch           ...      121
Average number of grid points per atom       ...     1265
UseSFitting                                  ... on

GRIDX 3
-------
General Integration Accuracy     IntAcc      ... 4.338
Radial Grid Type                 RadialGrid  ... OptM3 with GC (2021)
Angular Grid (max. ang.)         AngularGrid ... 3 (Lebedev-194)
Angular grid pruning method      GridPruning ... 4 (adaptive)
Weight generation scheme         WeightScheme... mBecke (2022)
Basis function cutoff            BFCut       ... 1.0000e-11
Integration weight cutoff        WCut        ... 1.0000e-14
Partially contracted basis set               ... on
Rotationally invariant grid construction     ... off
Angular grids for H and He will be reduced by one unit

Total number of grid points                  ...    41689
Total number of batches                      ...      334
Average number of points per batch           ...      124
Average number of grid points per atom       ...     2779
UseSFitting                                  ... on
Initializing property integral containers    ... done (  0.0 sec)

SHARK setup successfully completed in   0.5 seconds

Maximum memory used throughout the entire STARTUP-calculation: 22.4 MB
[ga00:2743083] 19 more processes have sent help message help-mpi-btl-openib.txt / error in device init
[ga00:2743083] Set MCA parameter "orte_base_help_aggregate" to 0 to see all help / error messages
--------------------------------------------------------------------------
WARNING: There was an error initializing an OpenFabrics device.

  Local host:   ga00
  Local device: mlx5_0
--------------------------------------------------------------------------


           ************************************************************
           *        Program running with 20 parallel MPI-processes    *
           *              working on a common directory               *
           ************************************************************
-------------------------------------------------------------------------------
                                 ORCA GUESS
                   Start orbitals & Density for SCF / CASSCF
-------------------------------------------------------------------------------

------------
SCF SETTINGS
------------
Hamiltonian:
 Density Functional     Method          .... DFT(GTOs)
 Exchange Functional    Exchange        .... B88
   X-Alpha parameter    XAlpha          ....  0.666667
   Becke's b parameter  XBeta           ....  0.004200
 Correlation Functional Correlation     .... LYP
 LDA part of GGA corr.  LDAOpt          .... VWN-5
 Gradients option       PostSCFGGA      .... off
 Hybrid DFT is turned on
   Fraction HF Exchange ScalHFX         ....  0.200000
   Scaling of DF-GGA-X  ScalDFX         ....  0.720000
   Scaling of DF-GGA-C  ScalDFC         ....  0.810000
   Scaling of DF-LDA-C  ScalLDAC        ....  1.000000
   Perturbative correction              ....  0.000000
   NL short-range parameter             ....  4.800000
 RI-approximation to the Coulomb term is turned on
   Number of AuxJ basis functions       .... 431
   RIJ-COSX (HFX calculated with COS-X)).... on


General Settings:
 Integral files         IntName         .... EMC
 Hartree-Fock type      HFTyp           .... RHF
 Total Charge           Charge          ....    0
 Multiplicity           Mult            ....    1
 Number of Electrons    NEL             ....   56
 Basis Dimension        Dim             ....  265
 Nuclear Repulsion      ENuc            ....    316.7379584845 Eh

Convergence Acceleration:
 AO-DIIS                CNVDIIS         .... on
   Start iteration      DIISMaxIt       ....    12
   Startup error        DIISStart       ....  0.200000
   # of expansion vecs  DIISMaxEq       ....     5
   Bias factor          DIISBfac        ....   1.050
   Max. coefficient     DIISMaxC        ....  10.000
 MO-DIIS                CNVKDIIS        .... off
 Trust-Rad. Augm. Hess. CNVTRAH         .... auto
   Auto Start mean grad. ratio tolernc. ....  1.125000
   Auto Start start iteration           ....    50
   Auto Start num. interpolation iter.  ....    10
   Max. Number of Micro iterations      ....    24
   Max. Number of Macro iterations      .... Maxiter - #DIIS iter
   Number of Davidson start vectors     ....     2
   Converg. threshold    (grad. norm)   ....   1.000e-05
   Grad. Scal. Fac. for Micro threshold ....   0.100
   Minimum threshold for Micro iter.    ....   1.000e-02
   NR start threshold (gradient norm)   ....   1.000e-04
   Initial trust radius                 ....   0.400
   Minimum AH scaling param. (alpha)    ....   1.000
   Maximum AH scaling param. (alpha)    .... 1000.000
   Quad. conv. algorithm                .... NR
   White noise on init. David. guess    .... on
   Maximum white noise                  ....   0.010
   Pseudo random numbers                .... off
   Inactive MOs                         .... canonical
   Orbital update algorithm             .... Taylor
   Preconditioner                       .... Diag
   Full preconditioner red. dimension   ....   250
 SOSCF                  CNVSOSCF        .... on
   Start iteration      SOSCFMaxIt      ....   150
   Startup grad/error   SOSCFStart      ....  0.003300
   Hessian update       SOSCFHessUp     .... L-BFGS
 Level Shifting         CNVShift        .... on
   Level shift para.    LevelShift      ....    0.2500
   Turn off err/grad.   ShiftErr        ....    0.0010
 Zerner damping         CNVZerner       .... off
 Static damping         CNVDamp         .... on
   Fraction old density DampFac         ....    0.7000
   Max. Damping (<1)    DampMax         ....    0.9800
   Min. Damping (>=0)   DampMin         ....    0.0000
   Turn off err/grad.   DampErr         ....    0.1000

SCF Procedure:
 Maximum # iterations   MaxIter         ....   125
 SCF integral mode      SCFMode         .... Direct
   Integral package                     .... SHARK and LIBINT hybrid scheme
 Reset frequency        DirectResetFreq ....    20
 Integral Threshold     Thresh          ....  2.500e-11 Eh
 Primitive CutOff       TCut            ....  2.500e-12 Eh

Convergence Tolerance:
 Convergence Check Mode ConvCheckMode   .... Total+1el-Energy
 Convergence forced     ConvForced      .... 0
 Energy Change          TolE            ....  1.000e-08 Eh
 1-El. energy change                    ....  1.000e-05 Eh
 Orbital Gradient       TolG            ....  1.000e-05
 Orbital Rotation angle TolX            ....  1.000e-05
 DIIS Error             TolErr          ....  5.000e-07

------------------------------
INITIAL GUESS: MODEL POTENTIAL
------------------------------
Loading Hartree-Fock densities                     ... done
Calculating cut-offs                               ... done
Initializing the effective Hamiltonian             ... done
Setting up the integral package (SHARK)            ... done
Starting the Coulomb interaction                   ... done (   0.0 sec)
Making the grid                                    ... done (   0.0 sec)
Mapping shells                                     ... done
Starting the XC term evaluation                    ... done (   0.0 sec)
  promolecular density results
     # of electrons  =     55.994513031
     EX              =    -47.519924956
     EC              =     -1.911790023
     EX+EC           =    -49.431714979
Transforming the Hamiltonian                       ... done (   0.0 sec)
Diagonalizing the Hamiltonian                      ... done (   0.0 sec)
Back transforming the eigenvectors                 ... done (   0.0 sec)
Now organizing SCF variables                       ... done
                      ------------------
                      INITIAL GUESS DONE (   0.1 sec)
                      ------------------
             **** ENERGY FILE WAS UPDATED (EMC.en.tmp) ****
Finished Guess after   0.5 sec
Maximum memory used throughout the entire GUESS-calculation: 14.8 MB
[ga00:2743180] 19 more processes have sent help message help-mpi-btl-openib.txt / error in device init
[ga00:2743180] Set MCA parameter "orte_base_help_aggregate" to 0 to see all help / error messages
--------------------------------------------------------------------------
WARNING: There was an error initializing an OpenFabrics device.

  Local host:   ga00
  Local device: mlx5_0
--------------------------------------------------------------------------


           ************************************************************
           *        Program running with 20 parallel MPI-processes    *
           *              working on a common directory               *
           ************************************************************

-------------------------------------------------------------------------------------------
                                      ORCA LEAN-SCF
                              memory conserving SCF solver
-------------------------------------------------------------------------------------------

--------------------
CPCM SOLVATION MODEL
--------------------
CPCM parameters:
  Epsilon                                         ...      80.1510
  Refrac                                          ...       1.3328
  Rsolv                                           ...       1.3000
  Surface type                                    ... GAUSSIAN VDW
  Discretization scheme                           ... Constant charge density
    Threshold for H atoms                         ...       5.0000 (charges/Ang^2)
    Threshold for non-H atoms                     ...       5.0000 (charges/Ang^2)
  Epsilon function type                           ...         CPCM
Solvent:                                          ... WATER
Radii:
  Scheme                                          ... Element-dependent radii
  Radius for O  used is    3.4469 Bohr (=   1.8240 Ang.)
  Radius for C  used is    3.8550 Bohr (=   2.0400 Ang.)
  Radius for H  used is    2.4944 Bohr (=   1.3200 Ang.)
Calculating surface                               ...        done! (  0.0s)
Cavity surface points                             ...         1407
Cavity Volume                                     ...     902.7857
Cavity Surface-area                               ...     550.6823
Calculating surface distance matrix               ...        done! (  0.0s)
Performing Cholesky decomposition & store         ...        done! (  0.0s)
Overall time for CPCM initialization              ...                 0.1s

----------------------------------------D-I-I-S--------------------------------------------
Iteration    Energy (Eh)           Delta-E    RMSDP     MaxDP     DIISErr   Damp  Time(sec)
-------------------------------------------------------------------------------------------
               ***  Starting incremental Fock matrix formation  ***
    1    -382.6306592886065800     0.00e+00  1.41e-03  5.99e-02  3.14e-01  0.700   0.5
    2    -382.7562618912295420    -1.26e-01  9.00e-04  3.30e-02  1.21e-01  0.700   0.3
                               ***Turning on AO-DIIS***
    3    -382.7997962389933946    -4.35e-02  3.46e-04  8.68e-03  3.72e-02  0.700   0.3
    4    -382.8275283972760690    -2.77e-02  5.06e-04  1.18e-02  1.44e-02  0.000   0.3
    5    -382.8902580737495782    -6.27e-02  1.46e-04  4.27e-03  7.14e-03  0.000   0.3
                              *** Initializing SOSCF ***
---------------------------------------S-O-S-C-F--------------------------------------
Iteration    Energy (Eh)           Delta-E    RMSDP     MaxDP     MaxGrad    Time(sec)
--------------------------------------------------------------------------------------
    6    -382.8905531156077586    -2.95e-04  5.14e-05  1.29e-03  1.50e-03     0.3
               *** Restarting incremental Fock matrix formation ***
    7    -382.8905751567589277    -2.20e-05  4.25e-05  1.33e-03  5.55e-04     0.5
    8    -382.8905675749015245     7.58e-06  1.80e-05  8.46e-04  1.15e-03     0.4
    9    -382.8905794158579283    -1.18e-05  4.53e-06  1.78e-04  6.85e-05     0.4
   10    -382.8905793597019738     5.62e-08  2.16e-06  1.03e-04  9.68e-05     0.4
   11    -382.8905795266571204    -1.67e-07  9.72e-07  2.31e-05  1.16e-05     0.3
   12    -382.8905795233655454     3.29e-09  5.55e-07  1.28e-05  1.43e-05     0.3
                 **** Energy Check signals convergence ****

               *****************************************************
               *                     SUCCESS                       *
               *           SCF CONVERGED AFTER  12 CYCLES          *
               *****************************************************

Recomputing exchange energy using gridx3       ...[ga00:2743277] 19 more processes have sent help message help-mpi-btl-openib.txt / error in device init
[ga00:2743277] Set MCA parameter "orte_base_help_aggregate" to 0 to see all help / error messages
 done (    0.605 sec)
Old exchange energy                            :     -9.647480827 Eh
New exchange energy                            :     -9.647490220 Eh
Exchange energy change after final integration :     -0.000009394 Eh
Total energy after final integration           :   -382.890588917 Eh
             **** ENERGY FILE WAS UPDATED (EMC.en.tmp) ****

----------------
TOTAL SCF ENERGY
----------------

Total Energy       :       -382.89058891704894 Eh          -10418.98262 eV

Components:
Nuclear Repulsion  :        316.73795848447332 Eh            8618.87803 eV
Electronic Energy  :       -699.61778343200785 Eh          -19037.56774 eV
One Electron Energy:      -1150.04139794905564 Eh          -31294.21741 eV
Two Electron Energy:        450.42361451704778 Eh           12256.64967 eV
CPCM Dielectric    :         -0.01075457583102 Eh              -0.29265 eV

Virial components:
Potential Energy   :       -763.94928950915801 Eh          -20788.11701 eV
Kinetic Energy     :        381.05870059210906 Eh           10369.13440 eV
Virial Ratio       :          2.00480736516997

DFT components:
N(Alpha)           :       28.000002545736 electrons
N(Beta)            :       28.000002545736 electrons
N(Total)           :       56.000005091473 electrons
E(X)               :      -38.385476018848 Eh       
E(C)               :       -2.257492975908 Eh       
E(XC)              :      -40.642968994755 Eh       

CPCM Solvation Model Properties:
Surface-charge          :         -0.02248506181385
Corrected charge        :         -0.00000000000000
Outlying charge corr.   :          0.00003849347198 Eh               0.00105 eV
Free-energy (cav+disp)  :  This term is not implemented in the current solvation scheme

---------------
SCF CONVERGENCE
---------------

  Last Energy change         ...   -3.2916e-09  Tolerance :   1.0000e-08
  Last MAX-Density change    ...    1.2778e-05  Tolerance :   1.0000e-07
  Last RMS-Density change    ...    5.5514e-07  Tolerance :   5.0000e-09
  Last DIIS Error            ...    1.5019e-03  Tolerance :   5.0000e-07
  Last Orbital Gradient      ...    1.4290e-05  Tolerance :   1.0000e-05
  Last Orbital Rotation      ...    7.7555e-06  Tolerance :   1.0000e-05


----------------
ORBITAL ENERGIES
----------------

  NO   OCC          E(Eh)            E(eV) 
   0   2.0000     -19.183451      -522.0082 
   1   2.0000     -19.181688      -521.9603 
   2   2.0000     -19.127493      -520.4855 
   3   2.0000     -10.357845      -281.8513 
   4   2.0000     -10.226442      -278.2756 
   5   2.0000     -10.222347      -278.1642 
   6   2.0000     -10.161638      -276.5122 
   7   2.0000      -1.140103       -31.0238 
   8   2.0000      -1.059241       -28.8234 
   9   2.0000      -1.026862       -27.9423 
  10   2.0000      -0.780144       -21.2288 
  11   2.0000      -0.722074       -19.6486 
  12   2.0000      -0.636661       -17.3244 
  13   2.0000      -0.577772       -15.7220 
  14   2.0000      -0.549587       -14.9550 
  15   2.0000      -0.512584       -13.9481 
  16   2.0000      -0.500126       -13.6091 
  17   2.0000      -0.471623       -12.8335 
  18   2.0000      -0.447279       -12.1711 
  19   2.0000      -0.425979       -11.5915 
  20   2.0000      -0.417346       -11.3566 
  21   2.0000      -0.393534       -10.7086 
  22   2.0000      -0.369217       -10.0469 
  23   2.0000      -0.364509        -9.9188 
  24   2.0000      -0.355871        -9.6837 
  25   2.0000      -0.321460        -8.7474 
  26   2.0000      -0.308484        -8.3943 
  27   2.0000      -0.307050        -8.3553 
  28   0.0000       0.014685         0.3996 
  29   0.0000       0.038325         1.0429 
  30   0.0000       0.060031         1.6335 
  31   0.0000       0.073099         1.9891 
  32   0.0000       0.092197         2.5088 
  33   0.0000       0.105957         2.8832 
  34   0.0000       0.115095         3.1319 
  35   0.0000       0.118188         3.2160 
  36   0.0000       0.128553         3.4981 
  37   0.0000       0.128630         3.5002 
  38   0.0000       0.138534         3.7697 
*Only the first 10 virtual orbitals were printed.

                    ********************************
                    * MULLIKEN POPULATION ANALYSIS *
                    ********************************

-----------------------
MULLIKEN ATOMIC CHARGES
-----------------------
   0 O :   -0.282738
   1 O :   -0.288491
   2 O :   -0.423958
   3 C :   -0.018316
   4 C :   -0.339698
   5 C :    0.498362
   6 C :   -0.187758
   7 H :    0.119398
   8 H :    0.119399
   9 H :    0.130716
  10 H :    0.120162
  11 H :    0.120174
  12 H :    0.140538
  13 H :    0.151672
  14 H :    0.140538
Sum of atomic charges:   -0.0000000

--------------------------------
MULLIKEN REDUCED ORBITAL CHARGES
--------------------------------
  0 O s       :     3.773656  s :     3.773656
      pz      :     1.732381  p :     4.468306
      px      :     1.173919
      py      :     1.562006
      dz2     :     0.004560  d :     0.038704
      dxz     :     0.005961
      dyz     :     0.004234
      dx2y2   :     0.008356
      dxy     :     0.015594
      f0      :     0.000274  f :     0.002072
      f+1     :     0.000397
      f-1     :     0.000172
      f+2     :     0.000098
      f-2     :     0.000233
      f+3     :     0.000403
      f-3     :     0.000497

  1 O s       :     3.766913  s :     3.766913
      pz      :     1.734097  p :     4.480569
      px      :     1.199863
      py      :     1.546609
      dz2     :     0.004590  d :     0.038940
      dxz     :     0.005887
      dyz     :     0.004406
      dx2y2   :     0.007907
      dxy     :     0.016150
      f0      :     0.000275  f :     0.002069
      f+1     :     0.000384
      f-1     :     0.000187
      f+2     :     0.000080
      f-2     :     0.000246
      f+3     :     0.000451
      f-3     :     0.000447

  2 O s       :     3.815069  s :     3.815069
      pz      :     1.488065  p :     4.578648
      px      :     1.762230
      py      :     1.328353
      dz2     :     0.002625  d :     0.028440
      dxz     :     0.000335
      dyz     :     0.009916
      dx2y2   :     0.008249
      dxy     :     0.007315
      f0      :     0.000198  f :     0.001803
      f+1     :     0.000029
      f-1     :     0.000184
      f+2     :     0.000398
      f-2     :     0.000049
      f+3     :     0.000505
      f-3     :     0.000440

  3 C s       :     3.225223  s :     3.225223
      pz      :     1.046501  p :     2.662867
      px      :     0.740290
      py      :     0.876075
      dz2     :     0.008028  d :     0.120061
      dxz     :     0.024343
      dyz     :     0.031737
      dx2y2   :     0.031107
      dxy     :     0.024846
      f0      :     0.001315  f :     0.010165
      f+1     :     0.000460
      f-1     :     0.001552
      f+2     :     0.000180
      f-2     :     0.001914
      f+3     :     0.002721
      f-3     :     0.002023

  4 C s       :     3.275989  s :     3.275989
      pz      :     1.057238  p :     3.012398
      px      :     0.952813
      py      :     1.002348
      dz2     :     0.003998  d :     0.047505
      dxz     :     0.007519
      dyz     :     0.018338
      dx2y2   :     0.008527
      dxy     :     0.009123
      f0      :     0.000368  f :     0.003805
      f+1     :     0.000092
      f-1     :     0.001185
      f+2     :     0.000047
      f-2     :     0.000541
      f+3     :     0.000665
      f-3     :     0.000909

  5 C s       :     2.993750  s :     2.993750
      pz      :     0.781914  p :     2.192527
      px      :     0.679733
      py      :     0.730880
      dz2     :     0.009808  d :     0.284740
      dxz     :     0.046111
      dyz     :     0.070405
      dx2y2   :     0.063097
      dxy     :     0.095319
      f0      :     0.003412  f :     0.030621
      f+1     :     0.001359
      f-1     :     0.001683
      f+2     :     0.003027
      f-2     :     0.004211
      f+3     :     0.010598
      f-3     :     0.006332

  6 C s       :     3.268737  s :     3.268737
      pz      :     1.087033  p :     2.833517
      px      :     0.693501
      py      :     1.052983
      dz2     :     0.007080  d :     0.077870
      dxz     :     0.023930
      dyz     :     0.011776
      dx2y2   :     0.012743
      dxy     :     0.022342
      f0      :     0.000952  f :     0.007634
      f+1     :     0.000582
      f-1     :     0.001349
      f+2     :     0.001050
      f-2     :     0.000400
      f+3     :     0.001963
      f-3     :     0.001337

  7 H s       :     0.859822  s :     0.859822
      pz      :     0.010151  p :     0.020781
      px      :     0.003267
      py      :     0.007363

  8 H s       :     0.859819  s :     0.859819
      pz      :     0.010142  p :     0.020782
      px      :     0.003268
      py      :     0.007372

  9 H s       :     0.847956  s :     0.847956
      pz      :     0.004377  p :     0.021328
      px      :     0.010375
      py      :     0.006575

 10 H s       :     0.858685  s :     0.858685
      pz      :     0.009535  p :     0.021153
      px      :     0.004144
      py      :     0.007474

 11 H s       :     0.858670  s :     0.858670
      pz      :     0.009529  p :     0.021156
      px      :     0.004145
      py      :     0.007481

 12 H s       :     0.839049  s :     0.839049
      pz      :     0.010207  p :     0.020412
      px      :     0.003267
      py      :     0.006938

 13 H s       :     0.827762  s :     0.827762
      pz      :     0.004455  p :     0.020565
      px      :     0.006895
      py      :     0.009215

 14 H s       :     0.839051  s :     0.839051
      pz      :     0.010216  p :     0.020411
      px      :     0.003261
      py      :     0.006933



                     *******************************
                     * LOEWDIN POPULATION ANALYSIS *
                     *******************************

----------------------
LOEWDIN ATOMIC CHARGES
----------------------
   0 O :    0.238574
   1 O :    0.214369
   2 O :    0.032727
   3 C :   -0.306755
   4 C :   -0.304912
   5 C :   -0.564916
   6 C :   -0.300091
   7 H :    0.130374
   8 H :    0.130363
   9 H :    0.131340
  10 H :    0.123070
  11 H :    0.123054
  12 H :    0.115624
  13 H :    0.121547
  14 H :    0.115633

-------------------------------
LOEWDIN REDUCED ORBITAL CHARGES
-------------------------------
  0 O s       :     3.262976  s :     3.262976
      pz      :     1.597577  p :     4.388145
      px      :     1.244315
      py      :     1.546253
      dz2     :     0.011026  d :     0.103792
      dxz     :     0.017037
      dyz     :     0.007625
      dx2y2   :     0.028173
      dxy     :     0.039930
      f0      :     0.000589  f :     0.006513
      f+1     :     0.000912
      f-1     :     0.000278
      f+2     :     0.000157
      f-2     :     0.001020
      f+3     :     0.001960
      f-3     :     0.001597

  1 O s       :     3.270249  s :     3.270249
      pz      :     1.600524  p :     4.404362
      px      :     1.265271
      py      :     1.538567
      dz2     :     0.010926  d :     0.104487
      dxz     :     0.018108
      dyz     :     0.006792
      dx2y2   :     0.025676
      dxy     :     0.042985
      f0      :     0.000600  f :     0.006533
      f+1     :     0.000842
      f-1     :     0.000367
      f+2     :     0.000329
      f-2     :     0.000830
      f+3     :     0.001977
      f-3     :     0.001589

  2 O s       :     3.414698  s :     3.414698
      pz      :     1.391839  p :     4.482995
      px      :     1.611132
      py      :     1.480024
      dz2     :     0.008311  d :     0.063605
      dxz     :     0.000446
      dyz     :     0.014102
      dx2y2   :     0.025156
      dxy     :     0.015590
      f0      :     0.000463  f :     0.005975
      f+1     :     0.000109
      f-1     :     0.000987
      f+2     :     0.000798
      f-2     :     0.000125
      f+3     :     0.001629
      f-3     :     0.001865

  3 C s       :     2.808726  s :     2.808726
      pz      :     1.066824  p :     2.919649
      px      :     0.877819
      py      :     0.975007
      dz2     :     0.057339  d :     0.509330
      dxz     :     0.074379
      dyz     :     0.127936
      dx2y2   :     0.112058
      dxy     :     0.137618
      f0      :     0.007748  f :     0.069050
      f+1     :     0.006623
      f-1     :     0.005862
      f+2     :     0.005072
      f-2     :     0.010838
      f+3     :     0.019063
      f-3     :     0.013844

  4 C s       :     2.839245  s :     2.839245
      pz      :     1.077654  p :     3.189169
      px      :     1.047562
      py      :     1.063953
      dz2     :     0.034757  d :     0.251091
      dxz     :     0.028244
      dyz     :     0.078304
      dx2y2   :     0.042032
      dxy     :     0.067753
      f0      :     0.002357  f :     0.025407
      f+1     :     0.003196
      f-1     :     0.003789
      f+2     :     0.003814
      f-2     :     0.003117
      f+3     :     0.004171
      f-3     :     0.004963

  5 C s       :     2.745397  s :     2.745397
      pz      :     0.773080  p :     2.592857
      px      :     0.845275
      py      :     0.974503
      dz2     :     0.074043  d :     1.043540
      dxz     :     0.122957
      dyz     :     0.200136
      dx2y2   :     0.263342
      dxy     :     0.383061
      f0      :     0.010389  f :     0.183121
      f+1     :     0.010222
      f-1     :     0.013661
      f+2     :     0.021358
      f-2     :     0.024415
      f+3     :     0.064513
      f-3     :     0.038564

  6 C s       :     2.868165  s :     2.868165
      pz      :     1.116341  p :     3.018219
      px      :     0.811503
      py      :     1.090375
      dz2     :     0.049145  d :     0.360471
      dxz     :     0.075645
      dyz     :     0.058665
      dx2y2   :     0.062541
      dxy     :     0.114474
      f0      :     0.005684  f :     0.053236
      f+1     :     0.007335
      f-1     :     0.004122
      f+2     :     0.008617
      f-2     :     0.003104
      f+3     :     0.012497
      f-3     :     0.011877

  7 H s       :     0.810684  s :     0.810684
      pz      :     0.029647  p :     0.058942
      px      :     0.009542
      py      :     0.019754

  8 H s       :     0.810688  s :     0.810688
      pz      :     0.029626  p :     0.058948
      px      :     0.009545
      py      :     0.019777

  9 H s       :     0.807905  s :     0.807905
      pz      :     0.013302  p :     0.060755
      px      :     0.027190
      py      :     0.020263

 10 H s       :     0.816320  s :     0.816320
      pz      :     0.027578  p :     0.060611
      px      :     0.012430
      py      :     0.020603

 11 H s       :     0.816322  s :     0.816322
      pz      :     0.027565  p :     0.060624
      px      :     0.012435
      py      :     0.020625

 12 H s       :     0.822721  s :     0.822721
      pz      :     0.031143  p :     0.061655
      px      :     0.009394
      py      :     0.021118

 13 H s       :     0.817699  s :     0.817699
      pz      :     0.013496  p :     0.060754
      px      :     0.018787
      py      :     0.028471

 14 H s       :     0.822718  s :     0.822718
      pz      :     0.031167  p :     0.061650
      px      :     0.009380
      py      :     0.021102



                      *****************************
                      * MAYER POPULATION ANALYSIS *
                      *****************************

  NA   - Mulliken gross atomic population
  ZA   - Total nuclear charge
  QA   - Mulliken gross atomic charge
  VA   - Mayer's total valence
  BVA  - Mayer's bonded valence
  FA   - Mayer's free valence

  ATOM       NA         ZA         QA         VA         BVA        FA
  0 O      8.2827     8.0000    -0.2827     2.0928     2.0928    -0.0000
  1 O      8.2885     8.0000    -0.2885     2.0904     2.0904     0.0000
  2 O      8.4240     8.0000    -0.4240     2.0687     2.0687    -0.0000
  3 C      6.0183     6.0000    -0.0183     3.8098     3.8098     0.0000
  4 C      6.3397     6.0000    -0.3397     3.8913     3.8913    -0.0000
  5 C      5.5016     6.0000     0.4984     4.3511     4.3511    -0.0000
  6 C      6.1878     6.0000    -0.1878     3.8232     3.8232     0.0000
  7 H      0.8806     1.0000     0.1194     0.9625     0.9625     0.0000
  8 H      0.8806     1.0000     0.1194     0.9625     0.9625     0.0000
  9 H      0.8693     1.0000     0.1307     0.9708     0.9708    -0.0000
 10 H      0.8798     1.0000     0.1202     0.9698     0.9698     0.0000
 11 H      0.8798     1.0000     0.1202     0.9698     0.9698    -0.0000
 12 H      0.8595     1.0000     0.1405     0.9642     0.9642     0.0000
 13 H      0.8483     1.0000     0.1517     0.9604     0.9604     0.0000
 14 H      0.8595     1.0000     0.1405     0.9642     0.9642     0.0000

  Mayer bond orders larger than 0.100000
B(  0-O ,  3-C ) :   0.8575 B(  0-O ,  5-C ) :   1.2097 B(  1-O ,  5-C ) :   1.2045 
B(  1-O ,  6-C ) :   0.8765 B(  2-O ,  5-C ) :   1.9001 B(  3-C ,  4-C ) :   0.9878 
B(  3-C ,  7-H ) :   0.9637 B(  3-C ,  8-H ) :   0.9637 B(  4-C ,  9-H ) :   0.9643 
B(  4-C , 10-H ) :   0.9693 B(  4-C , 11-H ) :   0.9693 B(  6-C , 12-H ) :   0.9711 
B(  6-C , 13-H ) :   0.9611 B(  6-C , 14-H ) :   0.9711 

-------
TIMINGS
-------

Total SCF time: 0 days 0 hours 0 min 5 sec 

Total time                  ....       5.441 sec
Sum of individual times     ....       5.429 sec  ( 99.8%)

SCF preparation             ....       0.522 sec  (  9.6%)
Fock matrix formation       ....       4.568 sec  ( 84.0%)
  Startup                   ....       0.011 sec  (  0.2% of F)
  Split-RI-J                ....       0.318 sec  (  7.0% of F)
  Chain of spheres X        ....       3.049 sec  ( 66.7% of F)
  XC integration            ....       0.587 sec  ( 12.8% of F)
    Basis function eval.    ....       0.150 sec  ( 25.6% of XC)
    Density eval.           ....       0.130 sec  ( 22.2% of XC)
    XC-Functional eval.     ....       0.024 sec  (  4.1% of XC)
    XC-Potential eval.      ....       0.197 sec  ( 33.6% of XC)
  CPCM terms                ....       0.557 sec  ( 12.2% of F)
Diagonalization             ....       0.000 sec  (  0.0%)
Density matrix formation    ....       0.034 sec  (  0.6%)
Total Energy calculation    ....       0.027 sec  (  0.5%)
Population analysis         ....       0.016 sec  (  0.3%)
Orbital Transformation      ....       0.032 sec  (  0.6%)
Orbital Orthonormalization  ....       0.000 sec  (  0.0%)
DIIS solution               ....       0.146 sec  (  2.7%)
SOSCF solution              ....       0.083 sec  (  1.5%)
Finished LeanSCF after   5.5 sec

Maximum memory used throughout the entire LEANSCF-calculation: 24.8 MB

-------------------------   --------------------
FINAL SINGLE POINT ENERGY      -382.890588917049
-------------------------   --------------------

--------------------------------------------------------------------------
WARNING: There was an error initializing an OpenFabrics device.

  Local host:   ga00
  Local device: mlx5_0
--------------------------------------------------------------------------


           ************************************************************
           *        Program running with 20 parallel MPI-processes    *
           *              working on a common directory               *
           ************************************************************
------------------------------------------------------------------------------
                         ORCA SCF GRADIENT CALCULATION
------------------------------------------------------------------------------

Nuc. rep. gradient        (SHARK) ... done (  0.0 sec)
HCore & Overlap gradient  (SHARK) ... done (  0.0 sec)
Split-RIJ-J gradient      (SHARK) ... done (  0.1 sec)
COSX-gradient                     ... done (  1.7 sec)
XC gradient                       ... done (  0.2 sec)
CPCM gradient                     ... done (  0.2 sec)

------------------
CARTESIAN GRADIENT
------------------

   1   O   :    0.029621185   -0.004995792   -0.000027500
   2   O   :   -0.022073652   -0.011807230   -0.000034503
   3   O   :   -0.003822689    0.029414800   -0.000054761
   4   C   :   -0.015680436   -0.012026245    0.000005308
   5   C   :    0.003042329    0.010674704   -0.000035862
   6   C   :    0.000103806   -0.001231282    0.000143540
   7   C   :    0.011063597   -0.005437229    0.000001357
   8   H   :    0.002754850    0.000226094   -0.003431689
   9   H   :    0.002742395    0.000211483    0.003416051
  10   H   :    0.003263627   -0.000274180   -0.000008055
  11   H   :   -0.001208148   -0.002476069    0.000167765
  12   H   :   -0.001201619   -0.002443163   -0.000128350
  13   H   :   -0.000749980   -0.000103233    0.003494465
  14   H   :   -0.007101300    0.000354947    0.000001208
  15   H   :   -0.000753964   -0.000087605   -0.003508972

Difference to translation invariance:
           :   -0.0000000000    0.0000000000    0.0000000000

Difference to rotation invariance:
           :    0.0000001160    0.0000006538    0.0000353609

Norm of the Cartesian gradient     ...    0.0567164785
RMS gradient                       ...    0.0084547934
MAX gradient                       ...    0.0296211854

-------
TIMINGS
-------

Total SCF gradient time     ....        2.321 sec

Densities                   ....       0.002 sec  (  0.1%)
One electron gradient       ....       0.021 sec  (  0.9%)
RI-J Coulomb gradient       ....       0.147 sec  (  6.3%)
COSX gradient               ....       1.677 sec  ( 72.2%)
XC gradient                 ....       0.227 sec  (  9.8%)
CPCM gradient               ....       0.245 sec  ( 10.6%)
   A-Matrix (El+Nuc)        ....       0.054 sec  (  2.3%)
   Potential                ....       0.191 sec  (  8.2%)

Maximum memory used throughout the entire SCFGRAD-calculation: 30.4 MB
[ga00:2743670] 19 more processes have sent help message help-mpi-btl-openib.txt / error in device init
[ga00:2743670] Set MCA parameter "orte_base_help_aggregate" to 0 to see all help / error messages
------------------------------------------------------------------------------
                         ORCA GEOMETRY RELAXATION STEP
------------------------------------------------------------------------------

Reading the OPT-File                    .... done
Getting information on internals        .... done
Copying old internal coords+grads       .... done
Making the new internal coordinates     .... (2022 redundants) done
Validating the new internal coordinates .... (2022 redundants) done
Calculating the B-matrix                .... done
Calculating the G,G- and P matrices     .... done
Transforming gradient to internals      .... done
Projecting the internal gradient        .... done
Number of atoms                         ....  15
Number of internal coordinates          ....  53
Current Energy                          ....  -382.890588917 Eh
Current gradient norm                   ....     0.056716479 Eh/bohr
Maximum allowed component of the step   ....  0.300
Current trust radius                    ....  0.300
Evaluating the initial hessian          ....  (Almloef) done
Projecting the Hessian                  .... done
Forming the augmented Hessian           .... done
Diagonalizing the augmented Hessian     .... done
Last element of RFO vector              ....  0.996012221
Lowest eigenvalues of augmented Hessian:
 -0.004198666  0.012477297  0.018211257  0.018214277  0.028127592
Length of the computed step             ....  0.089574101
The final length of the internal step   ....  0.089574101
Converting the step to Cartesian space:
 Initial RMS(Int)=    0.0123039490
Transforming coordinates:
 Iter   0:  RMS(Cart)=    0.0257926949 RMS(Int)=    1.7258952774
done
Storing new coordinates                 .... done

                                .--------------------.
          ----------------------|Geometry convergence|-------------------------
          Item                value                   Tolerance       Converged
          ---------------------------------------------------------------------
          RMS gradient        0.0070521958            0.0000300000      NO
          MAX gradient        0.0296568286            0.0001000000      NO
          RMS step            0.0123039490            0.0006000000      NO
          MAX step            0.0416303246            0.0010000000      NO
          ........................................................
          Max(Bonds)      0.0220      Max(Angles)    1.49
          Max(Dihed)        0.64      Max(Improp)    0.00
          ---------------------------------------------------------------------

The optimization has not yet converged - more geometry cycles are needed


    ---------------------------------------------------------------------------
                         Redundant Internal Coordinates
                            (Angstroem and degrees)

        Definition                    Value    dE/dq     Step     New-Value
    ----------------------------------------------------------------------------
     1. B(C   3,O   0)                1.4315 -0.008697  0.0095    1.4410   
     2. B(C   4,C   3)                1.5138  0.000158 -0.0002    1.5136   
     3. B(C   5,O   0)                1.3624  0.025826 -0.0219    1.3405   
     4. B(C   5,O   2)                1.2237  0.029657 -0.0152    1.2085   
     5. B(C   5,O   1)                1.3624  0.025961 -0.0220    1.3403   
     6. B(C   6,O   1)                1.4315 -0.004107  0.0045    1.4360   
     7. B(H   7,C   3)                1.0958  0.002883 -0.0043    1.0915   
     8. B(H   8,C   3)                1.0957  0.002862 -0.0042    1.0915   
     9. B(H   9,C   4)                1.0937  0.002516 -0.0037    1.0899   
    10. B(H  10,C   4)                1.0950  0.001581 -0.0023    1.0927   
    11. B(H  11,C   4)                1.0950  0.001532 -0.0023    1.0927   
    12. B(H  12,C   6)                1.0942  0.002948 -0.0043    1.0898   
    13. B(H  13,C   6)                1.0932  0.004095 -0.0060    1.0872   
    14. B(H  14,C   6)                1.0942  0.002970 -0.0044    1.0898   
    15. A(C   3,O   0,C   5)          115.57 -0.002114    0.29    115.87   
    16. A(C   5,O   1,C   6)          115.58  0.000884   -0.12    115.46   
    17. A(C   4,C   3,H   8)          109.75 -0.004241    0.89    110.64   
    18. A(O   0,C   3,H   8)          109.46  0.000003   -0.21    109.24   
    19. A(C   4,C   3,H   7)          109.75 -0.004251    0.89    110.64   
    20. A(H   7,C   3,H   8)          109.40  0.002443   -0.38    109.02   
    21. A(O   0,C   3,H   7)          109.47  0.000022   -0.22    109.25   
    22. A(O   0,C   3,C   4)          109.00  0.006038   -0.96    108.04   
    23. A(H   9,C   4,H  10)          108.85 -0.000442   -0.19    108.66   
    24. A(C   3,C   4,H  10)          110.61 -0.002369    0.34    110.95   
    25. A(C   3,C   4,H   9)          110.95  0.005138   -0.96    109.99   
    26. A(H  10,C   4,H  11)          106.87 -0.003467    0.80    107.68   
    27. A(H   9,C   4,H  11)          108.84  0.001965   -0.25    108.59   
    28. A(C   3,C   4,H  11)          110.61 -0.001080    0.31    110.92   
    29. A(O   0,C   5,O   1)          108.00  0.002547   -0.33    107.68   
    30. A(O   1,C   5,O   2)          126.00 -0.000614    0.08    126.08   
    31. A(O   0,C   5,O   2)          126.00 -0.001933    0.24    126.24   
    32. A(H  12,C   6,H  14)          110.71  0.001485   -0.29    110.42   
    33. A(O   1,C   6,H  14)          110.25 -0.001587    0.25    110.50   
    34. A(H  12,C   6,H  13)          108.72 -0.003409    0.63    109.35   
    35. A(O   1,C   6,H  13)          108.12  0.008634   -1.49    106.63   
    36. A(H  13,C   6,H  14)          108.73 -0.003403    0.63    109.35   
    37. A(O   1,C   6,H  12)          110.25 -0.001603    0.25    110.50   
    38. D(C   4,C   3,O   0,C   5)    180.00 -0.000001    0.00    180.00   
    39. D(H   8,C   3,O   0,C   5)     59.95  0.001502   -0.37     59.59   
    40. D(H   7,C   3,O   0,C   5)    -59.95 -0.001503    0.37    -59.58   
    41. D(H   9,C   4,C   3,H   8)    -60.13  0.000505    0.00    -60.13   
    42. D(H   9,C   4,C   3,H   7)     60.13 -0.001792    0.64     60.77   
    43. D(H  10,C   4,C   3,O   0)    -59.10  0.000647   -0.33    -59.43   
    44. D(H  10,C   4,C   3,H   8)     60.77  0.001786   -0.64     60.12   
    45. D(H  10,C   4,C   3,H   7)   -178.97 -0.000510   -0.00   -178.98   
    46. D(H   9,C   4,C   3,O   0)   -180.00 -0.000635    0.32   -179.68   
    47. D(O   2,C   5,O   1,C   6)      0.00 -0.000040    0.07      0.07   
    48. D(O   0,C   5,O   1,C   6)   -179.95  0.000062   -0.11   -180.06   
    49. D(O   2,C   5,O   0,C   3)     -0.00  0.000039   -0.07     -0.07   
    50. D(O   1,C   5,O   0,C   3)    179.95 -0.000062    0.11    180.06   
    51. D(H  13,C   6,O   1,C   5)   -180.00  0.000006   -0.00   -180.00   
    52. D(H  12,C   6,O   1,C   5)    -61.27  0.000135    0.01    -61.26   
    53. D(H  14,C   6,O   1,C   5)     61.27 -0.000140   -0.01     61.25   
    ----------------------------------------------------------------------------

Geometry step timings:
Preparation and reading OPT file:      0.000 s (10.197 %)
Internal coordinates            :      0.000 s ( 1.894 %)
B/P matrices and projection     :      0.000 s (28.988 %)
Hessian update/contruction      :      0.000 s ( 7.720 %)
Making the step                 :      0.000 s (20.612 %)
Converting the step to Cartesian:      0.000 s ( 3.059 %)
Storing new data                :      0.000 s ( 1.384 %)
Checking convergence            :      0.000 s ( 0.073 %)
Final printing                  :      0.000 s (25.492 %)
Total time                      :      0.001 s
--------------------------------------------------------------------------
WARNING: There was an error initializing an OpenFabrics device.

  Local host:   ga00
  Local device: mlx5_0
--------------------------------------------------------------------------
[ga00:2743790] 19 more processes have sent help message help-mpi-btl-openib.txt / error in device init
[ga00:2743790] Set MCA parameter "orte_base_help_aggregate" to 0 to see all help / error messages

Time for energy+gradient        :     10.743 s
Time for complete geometry iter :     11.394 s

         *************************************************************
         *                GEOMETRY OPTIMIZATION CYCLE   2            *
         *************************************************************
---------------------------------
CARTESIAN COORDINATES (ANGSTROEM)
---------------------------------
  O      0.665677   -0.441872   -0.000567
  O     -1.473530   -0.771074    0.000172
  O     -0.709837    1.369427   -0.002342
  C      1.820676    0.419748   -0.001084
  C      3.056966   -0.453551    0.000595
  C     -0.524339    0.175247   -0.001943
  C     -2.826058   -0.288654    0.000516
  H      1.797590    1.051961   -0.890553
  H      1.796710    1.054186    0.886772
  H      3.952254    0.168072    0.006013
  H      3.076132   -1.101763    0.880056
  H      3.083181   -1.094114   -0.884268
  H     -3.019960    0.303234    0.894840
  H     -3.469048   -1.165314    0.002299
  H     -3.021315    0.300667   -0.895207

----------------------------
CARTESIAN COORDINATES (A.U.)
----------------------------
  NO LB      ZA    FRAG     MASS         X           Y           Z
   0 O     8.0000    0    15.999    1.257947   -0.835016   -0.001071
   1 O     8.0000    0    15.999   -2.784569   -1.457118    0.000325
   2 O     8.0000    0    15.999   -1.341397    2.587841   -0.004426
   3 C     6.0000    0    12.011    3.440580    0.793209   -0.002048
   4 C     6.0000    0    12.011    5.776829   -0.857087    0.001125
   5 C     6.0000    0    12.011   -0.990858    0.331170   -0.003673
   6 C     6.0000    0    12.011   -5.340475   -0.545477    0.000976
   7 H     1.0000    0     1.008    3.396954    1.987919   -1.682901
   8 H     1.0000    0     1.008    3.395290    1.992123    1.675756
   9 H     1.0000    0     1.008    7.468677    0.317610    0.011362
  10 H     1.0000    0     1.008    5.813047   -2.082030    1.663066
  11 H     1.0000    0     1.008    5.826368   -2.067576   -1.671024
  12 H     1.0000    0     1.008   -5.706898    0.573028    1.691003
  13 H     1.0000    0     1.008   -6.555551   -2.202125    0.004345
  14 H     1.0000    0     1.008   -5.709457    0.568178   -1.691697

--------------------------------
INTERNAL COORDINATES (ANGSTROEM)
--------------------------------
 O      0   0   0     0.000000000000     0.00000000     0.00000000
 O      1   0   0     2.164389681262     0.00000000     0.00000000
 O      2   1   0     2.272658398943    61.61586420     0.00000000
 C      1   2   3     1.440976262157   152.02598330     0.05444713
 C      4   1   2     1.513627234248   108.04045841   179.92351092
 C      3   2   1     1.208500531976    28.46500540     0.08927995
 C      2   1   3     1.435986965004   151.62107627   359.94578613
 H      4   1   2     1.091504514035   109.24903838   300.33829502
 H      4   1   2     1.091500430350   109.24838051    59.50688316
[...]

  9 H s       :     0.850306  s :     0.850306
      pz      :     0.004417  p :     0.021442
      px      :     0.010393
      py      :     0.006631

 10 H s       :     0.855883  s :     0.855883
      pz      :     0.009699  p :     0.021246
      px      :     0.004237
      py      :     0.007311

 11 H s       :     0.855872  s :     0.855872
      pz      :     0.009701  p :     0.021246
      px      :     0.004237
      py      :     0.007308

 12 H s       :     0.837862  s :     0.837862
      pz      :     0.010228  p :     0.020502
      px      :     0.003260
      py      :     0.007015

 13 H s       :     0.829854  s :     0.829854
      pz      :     0.004415  p :     0.020721
      px      :     0.006327
      py      :     0.009979

 14 H s       :     0.837862  s :     0.837862
      pz      :     0.010239  p :     0.020502
      px      :     0.003259
      py      :     0.007005



                     *******************************
                     * LOEWDIN POPULATION ANALYSIS *
                     *******************************

----------------------
LOEWDIN ATOMIC CHARGES
----------------------
   0 O :    0.249580
   1 O :    0.229360
   2 O :    0.038299
   3 C :   -0.280907
   4 C :   -0.302838
   5 C :   -0.639429
   6 C :   -0.283352
   7 H :    0.129865
   8 H :    0.129868
   9 H :    0.132269
  10 H :    0.123703
  11 H :    0.123694
  12 H :    0.115011
  13 H :    0.119866
  14 H :    0.115012

-------------------------------
LOEWDIN REDUCED ORBITAL CHARGES
-------------------------------
  0 O s       :     3.254606  s :     3.254606
      pz      :     1.588349  p :     4.384893
      px      :     1.251025
      py      :     1.545518
      dz2     :     0.011095  d :     0.104243
      dxz     :     0.017400
      dyz     :     0.007338
      dx2y2   :     0.028348
      dxy     :     0.040062
      f0      :     0.000603  f :     0.006679
      f+1     :     0.000936
      f-1     :     0.000277
      f+2     :     0.000194
      f-2     :     0.001006
      f+3     :     0.002079
      f-3     :     0.001583

  1 O s       :     3.258447  s :     3.258447
      pz      :     1.591356  p :     4.398691
      px      :     1.264003
      py      :     1.543332
      dz2     :     0.011100  d :     0.106671
      dxz     :     0.018154
      dyz     :     0.007266
      dx2y2   :     0.027724
      dxy     :     0.042426
      f0      :     0.000626  f :     0.006832
      f+1     :     0.000851
      f-1     :     0.000389
      f+2     :     0.000335
      f-2     :     0.000875
      f+3     :     0.002030
      f-3     :     0.001726

  2 O s       :     3.401263  s :     3.401263
      pz      :     1.394639  p :     4.488781
      px      :     1.607092
      py      :     1.487050
      dz2     :     0.008353  d :     0.065282
      dxz     :     0.000522
      dyz     :     0.014643
      dx2y2   :     0.025142
      dxy     :     0.016622
      f0      :     0.000498  f :     0.006375
      f+1     :     0.000123
      f-1     :     0.001022
      f+2     :     0.000848
      f-2     :     0.000153
      f+3     :     0.001785
      f-3     :     0.001946

  3 C s       :     2.812942  s :     2.812942
      pz      :     1.072144  p :     2.909797
      px      :     0.862944
      py      :     0.974709
      dz2     :     0.055646  d :     0.492581
      dxz     :     0.070056
      dyz     :     0.125031
      dx2y2   :     0.107464
      dxy     :     0.134384
      f0      :     0.007015  f :     0.065588
      f+1     :     0.006418
      f-1     :     0.005604
      f+2     :     0.004867
      f-2     :     0.010057
      f+3     :     0.018064
      f-3     :     0.013563

  4 C s       :     2.836466  s :     2.836466
      pz      :     1.075434  p :     3.189657
      px      :     1.049677
      py      :     1.064546
      dz2     :     0.036590  d :     0.251105
      dxz     :     0.026688
      dyz     :     0.078010
      dx2y2   :     0.041554
      dxy     :     0.068263
      f0      :     0.002502  f :     0.025611
      f+1     :     0.003148
      f-1     :     0.003886
      f+2     :     0.003379
      f-2     :     0.003261
      f+3     :     0.004285
      f-3     :     0.005149

  5 C s       :     2.729578  s :     2.729578
      pz      :     0.772412  p :     2.612734
      px      :     0.855365
      py      :     0.984956
      dz2     :     0.076155  d :     1.096681
      dxz     :     0.135088
      dyz     :     0.210578
      dx2y2   :     0.278893
      dxy     :     0.395967
      f0      :     0.011184  f :     0.200436
      f+1     :     0.010740
      f-1     :     0.013953
      f+2     :     0.023204
      f-2     :     0.027706
      f+3     :     0.071395
      f-3     :     0.042254

  6 C s       :     2.868966  s :     2.868966
      pz      :     1.119559  p :     3.012024
      px      :     0.799829
      py      :     1.092636
      dz2     :     0.047597  d :     0.350809
      dxz     :     0.073033
      dyz     :     0.057633
      dx2y2   :     0.062202
      dxy     :     0.110344
      f0      :     0.005257  f :     0.051554
      f+1     :     0.007118
      f-1     :     0.004067
      f+2     :     0.008388
      f-2     :     0.002864
      f+3     :     0.012226
      f-3     :     0.011634

  7 H s       :     0.810145  s :     0.810145
      pz      :     0.030140  p :     0.059990
      px      :     0.009612
      py      :     0.020238

  8 H s       :     0.810145  s :     0.810145
      pz      :     0.030130  p :     0.059988
      px      :     0.009612
      py      :     0.020246

  9 H s       :     0.806792  s :     0.806792
      pz      :     0.013394  p :     0.060939
      px      :     0.027150
      py      :     0.020395

 10 H s       :     0.815158  s :     0.815158
      pz      :     0.028137  p :     0.061139
      px      :     0.012693
      py      :     0.020308

 11 H s       :     0.815165  s :     0.815165
      pz      :     0.028144  p :     0.061140
      px      :     0.012693
      py      :     0.020303

 12 H s       :     0.822491  s :     0.822491
      pz      :     0.031459  p :     0.062498
      px      :     0.009535
      py      :     0.021504

 13 H s       :     0.818539  s :     0.818539
      pz      :     0.013727  p :     0.061595
      px      :     0.017180
      py      :     0.030687

 14 H s       :     0.822491  s :     0.822491
      pz      :     0.031490  p :     0.062497
      px      :     0.009533
      py      :     0.021474



                      *****************************
                      * MAYER POPULATION ANALYSIS *
                      *****************************

  NA   - Mulliken gross atomic population
  ZA   - Total nuclear charge
  QA   - Mulliken gross atomic charge
  VA   - Mayer's total valence
  BVA  - Mayer's bonded valence
  FA   - Mayer's free valence

  ATOM       NA         ZA         QA         VA         BVA        FA
  0 O      8.2835     8.0000    -0.2835     2.0928     2.0928    -0.0000
  1 O      8.2896     8.0000    -0.2896     2.0893     2.0893    -0.0000
  2 O      8.4290     8.0000    -0.4290     2.0628     2.0628    -0.0000
  3 C      6.0225     6.0000    -0.0225     3.7971     3.7971     0.0000
  4 C      6.3348     6.0000    -0.3348     3.8962     3.8962     0.0000
  5 C      5.5138     6.0000     0.4862     4.3969     4.3969    -0.0000
  6 C      6.1817     6.0000    -0.1817     3.8161     3.8161    -0.0000
  7 H      0.8759     1.0000     0.1241     0.9634     0.9634     0.0000
  8 H      0.8759     1.0000     0.1241     0.9634     0.9634     0.0000
  9 H      0.8717     1.0000     0.1283     0.9705     0.9705     0.0000
 10 H      0.8771     1.0000     0.1229     0.9700     0.9700     0.0000
 11 H      0.8771     1.0000     0.1229     0.9700     0.9700     0.0000
 12 H      0.8584     1.0000     0.1416     0.9649     0.9649    -0.0000
 13 H      0.8506     1.0000     0.1494     0.9629     0.9629    -0.0000
 14 H      0.8584     1.0000     0.1416     0.9649     0.9649     0.0000

  Mayer bond orders larger than 0.100000
B(  0-O ,  3-C ) :   0.8407 B(  0-O ,  5-C ) :   1.2356 B(  1-O ,  5-C ) :   1.2217 
B(  1-O ,  6-C ) :   0.8688 B(  2-O ,  5-C ) :   1.9046 B(  3-C ,  4-C ) :   0.9910 
B(  3-C ,  7-H ) :   0.9637 B(  3-C ,  8-H ) :   0.9637 B(  4-C ,  9-H ) :   0.9644 
B(  4-C , 10-H ) :   0.9688 B(  4-C , 11-H ) :   0.9688 B(  6-C , 12-H ) :   0.9707 
B(  6-C , 13-H ) :   0.9628 B(  6-C , 14-H ) :   0.9707 

-------
TIMINGS
-------

Total SCF time: 0 days 0 hours 0 min 2 sec 

Total time                  ....       2.418 sec
Sum of individual times     ....       2.401 sec  ( 99.3%)

SCF preparation             ....       0.577 sec  ( 23.8%)
Fock matrix formation       ....       1.706 sec  ( 70.5%)
  Startup                   ....       0.004 sec  (  0.3% of F)
  Split-RI-J                ....       0.080 sec  (  4.7% of F)
  Chain of spheres X        ....       1.317 sec  ( 77.2% of F)
  XC integration            ....       0.151 sec  (  8.8% of F)
    Basis function eval.    ....       0.038 sec  ( 25.3% of XC)
    Density eval.           ....       0.035 sec  ( 23.3% of XC)
    XC-Functional eval.     ....       0.006 sec  (  4.0% of XC)
    XC-Potential eval.      ....       0.056 sec  ( 36.8% of XC)
  CPCM terms                ....       0.142 sec  (  8.3% of F)
Diagonalization             ....       0.000 sec  (  0.0%)
Density matrix formation    ....       0.008 sec  (  0.3%)
Total Energy calculation    ....       0.008 sec  (  0.3%)
Population analysis         ....       0.028 sec  (  1.1%)
Orbital Transformation      ....       0.016 sec  (  0.7%)
Orbital Orthonormalization  ....       0.000 sec  (  0.0%)
DIIS solution               ....       0.020 sec  (  0.8%)
SOSCF solution              ....       0.039 sec  (  1.6%)
Finished LeanSCF after   2.5 sec

Maximum memory used throughout the entire LEANSCF-calculation: 25.8 MB
[ga00:2748115] 19 more processes have sent help message help-mpi-btl-openib.txt / error in device init
[ga00:2748115] Set MCA parameter "orte_base_help_aggregate" to 0 to see all help / error messages

-------------------------   --------------------
FINAL SINGLE POINT ENERGY      -382.893687036064
-------------------------   --------------------

                                *** OPTIMIZATION RUN DONE ***

--------------------------------------------------------------------------
WARNING: There was an error initializing an OpenFabrics device.

  Local host:   ga00
  Local device: mlx5_0
--------------------------------------------------------------------------


           ************************************************************
           *        Program running with 20 parallel MPI-processes    *
           *              working on a common directory               *
           ************************************************************

------------------------------------------------------------------------------
                              ORCA PROPERTY CALCULATIONS
------------------------------------------------------------------------------

GBWName                                 ... EMC.gbw
Number of atoms                         ...     15
Number of basis functions               ...    265
Max core memory                         ...   5000 MB

Electric properties:
Dipole moment                           ... YES
Quadrupole moment                       ...  NO
Static polarizability (Dipole/Dipole)   ...  NO
Static polarizability (Dipole/Quad.)    ...  NO
Static polarizability (Quad./Quad.)     ...  NO
Static polarizability (Velocity)        ...  NO

Atomic electric properties:
Dipole moment                           ...  NO
Quadrupole moment                       ...  NO
Static polarizability                   ...  NO

Choice of electric origin               ... Center of mass
Position of electric origin             ...    -0.030625     0.005962    -0.000561

General magnetic properties:
Magnetizability                         ...  NO

EPR properties:
g-Tensor (aka g-matrix)                 ...  NO
Zero-Field splitting spin-orbit         ...  NO
Zero-field splitting spin-spin          ...  NO
Hyperfine couplings                     ...  NO (   0 nuclei)
Quadrupole couplings                    ...  NO (   0 nuclei)
Contact density                         ...  NO (   0 nuclei)

NMR properties:
Chemical shifts                         ...  NO (   0 nuclei)
Spin-rotation constants                 ...  NO (   0 nuclei)
Spin-spin couplings                     ...  NO (   0 nuclei,    0 pairs)

Choice of magnetic origin               ... GIAO
Position of magnetic origin             ...     0.000000     0.000000     0.000000

Properties with geometric perturbations:
SCF Hessian                             ...  NO
IR spectrum                             ...  NO
VCD spectrum                            ...  NO
X-ray spectroscopy properties:
SCF XES/XAS/RIXS spectra                ...  NO


-------------
DIPOLE MOMENT
-------------

Method             : SCF
Type of density    : Electron Density
Multiplicity       :   1
Irrep              :   0
Energy             :  -382.8936870360644207 Eh
Relativity type    : 
Basis              : AO
                                X                 Y                 Z
Electronic contribution:     -3.860231460       0.187285482       0.000371392
Nuclear contribution   :      4.033256864      -0.477969254      -0.000238637
                        -----------------------------------------
Total Dipole Moment    :      0.173025403      -0.290683773       0.000132755
                        -----------------------------------------
Magnitude (a.u.)       :      0.338282225
Magnitude (Debye)      :      0.859845082



--------------------
Rotational spectrum 
--------------------
 
Rotational constants in cm-1:             0.283167             0.044541             0.039346 
Rotational constants in MHz :          8489.127040          1335.315543          1179.549369 

Dipole components along the rotational axes: 
x,y,z [a.u.] :     0.174106    -0.290038    -0.000003 
x,y,z [Debye]:     0.442542    -0.737218    -0.000007 

 

Dipole moment calculation done in   0.0 sec 

Maximum memory used throughout the entire PROP-calculation: 13.0 MB
[ga00:2748223] 19 more processes have sent help message help-mpi-btl-openib.txt / error in device init
[ga00:2748223] Set MCA parameter "orte_base_help_aggregate" to 0 to see all help / error messages
--------------------------------------------------------------------------
WARNING: There was an error initializing an OpenFabrics device.

  Local host:   ga00
  Local device: mlx5_0
--------------------------------------------------------------------------
[ga00:2748319] 19 more processes have sent help message help-mpi-btl-openib.txt / error in device init
[ga00:2748319] Set MCA parameter "orte_base_help_aggregate" to 0 to see all help / error messages

--------------------------------
SUGGESTED CITATIONS FOR THIS RUN
--------------------------------

Below you find a list of papers that are relevant to this ORCA run
We neither can nor want to force you to cite these papers, but we appreciate if you do
You receive ORCA, which is the product of decades of hard work by many enthusiastic individuals, for free
The only thing we kindly ask in return is that you cite our papers,
We deeply appreciate it, if you show your appreciation for ORCA by not just citing the generic ORCA reference.

Please note that relegating all ORCA citations to the supporting information does *not* help us.
SI sections are not indexed - citations you put there will not count into any citation statistics
But we need these citations in order to attract the funding resources that allow us to do what we are doing

Therefore, if you are a happy ORCA user, please consider citing a few of the papers listed below in the main body of your paper

In addition to the list printed below, the program has created the file EMC.bibtex that contains the list in bibtex format
You can import this file easily into all common literature databanks and citation aid programs


List of essential papers. We consider these as the minimum necessary citations

  1. Neese,F.
     Software update: the ORCA program system, version 5.0
     WIRES Comput. Molec. Sci., 2022 12(1)e1606
     doi.org/10.1002/wcms.1606

List of papers to cite with high priority. The work reported in these papers was absolutely
necessary for this run to complete.
Our perspective: the developers of density functionals and basis sets usually get cited in chemistry papers
Good! But without the algorithms to do something with them, the functionals or basis sets would not do anything.
Hence, in our opinion, the algorithm design and method developments papers are equally worthy of getting cited

  1. Neese,F.
     An improvement of the resolution of the identity approximation for the formation of the Coulomb matrix
     J. Comp. Chem., 2003 24(14)1740-1747
     doi.org/10.1002/jcc.10318
  2. Neese,F.; Wennmohs,F.; Hansen,A.; Becker,U.
     Efficient, approximate and parallel Hartree-Fock and hybrid DFT calculations. A 'chain-of-spheres' algorithm for the Hartree-Fock exchange
     Chem. Phys., 2009 356(1-3)98-109
     doi.org/10.1016/j.chemphys.2008.10.036
  3. Garcia-Rates,M.; Neese,F.
     Effect of the Solute Cavity on the Solvation Energy and its Derivatives within the Framework of the Gaussian Charge Scheme
     J. Comput. Chem., 2020 41 922-939
     doi.org/10.1002/jcc.26139
  4. Helmich-Paris,B.; de Souza,B.; Neese,F.; Izsák,R.
     An improved chain of spheres for exchange algorithm
     J. Chem. Phys., 2021 155 104109
     doi.org/doi: 10.1063/5.0058766.
  5. Neese,F.
     The SHARK Integral Generation and Digestion System
     J. Comp. Chem., 2022  1-16
     doi.org/10.1002/jcc.26942

List of suggested additional citations. These are papers that are important in the 'surrounding' of 
of this run, or papers that preceded the highly important papers. If you like your results we are grateful for a citation.

  1. Izsak,R.; Neese,F.
     An overlap fitted chain of spheres exchange method
     J. Chem. Phys., 2011 135 144105
     doi.org/10.1063/1.3646921
  2. Izsak,R.; Hansen,A.; Neese,F.
     The resolution of identity and chain of spheres approximations for the LPNO-CCSD singles Fock term
     Molec. Phys., 2012 110 2413-2417
     doi.org/10.1080/00268976.2012.687466
  3. Neese,F.
     The ORCA program system
     WIRES Comput. Molec. Sci., 2012 2(1)73-78
     doi.org/10.1002/wcms.81
  4. Izsak,R.; Neese,F.; Klopper,W.
     Robust fitting techniques in the chain of spheres approximation to the Fock exchange: The role of the complementary space
     J. Chem. Phys., 2013 139 
     doi.org/10.1063/1.4819264
  5. Neese,F.
     Software update: the ORCA program system, version 4.0
     WIRES Comput. Molec. Sci., 2018 8(1)1-6
     doi.org/10.1002/wcms.1327
  6. Neese,F.; Wennmohs,F.; Becker,U.; Riplinger,C.
     The ORCA quantum chemistry program package
     J. Chem. Phys., 2020 152 Art. No. L224108
     doi.org/10.1063/5.0004608

List of optional additional citations

  1. Neese,F.
     Approximate second-order SCF convergence for spin unrestricted wavefunctions
     Chem. Phys. Lett., 2000 325(1-3)93-98
     doi.org/10.1016/s0009-2614(00)00662-x

Timings for individual modules:

Sum of individual times          ...       77.541 sec (=   1.292 min)
Startup calculation              ...       10.677 sec (=   0.178 min)  13.8 %
SCF iterations                   ...       41.428 sec (=   0.690 min)  53.4 %
Property calculations            ...        0.769 sec (=   0.013 min)   1.0 %
SCF Gradient evaluation          ...       24.647 sec (=   0.411 min)  31.8 %
Geometry relaxation              ...        0.020 sec (=   0.000 min)   0.0 %
                             ****ORCA TERMINATED NORMALLY****
TOTAL RUN TIME: 0 days 0 hours 1 minutes 23 seconds 636 msec
