[Molden Format]
[Title]
 Molden file created by orca_2mkl for BaseName=EMC

[Atoms] AU
O    1   8          1.2504396796        -0.8236303131         0.0002424764 
O    2   8         -2.7810770396        -1.4457407209         0.0000438699 
O    3   8         -1.3425587601         2.5840355483        -0.0019076014 
C    4   6          3.4673716167         0.8056381356        -0.0004182244 
C    5   6          5.7716644356        -0.8776192403        -0.0004051226 
C    6   6         -0.9866496099         0.3248262554        -0.0006821955 
C    7   6         -5.3555553303        -0.5431263929        -0.0007827655 
H    8   1          3.3898988088         2.0030734039        -1.6753390077 
H    9   1          3.3904662119         2.0036857730         1.6741005538 
H   10   1          7.4656951072         0.2993188514         0.0003067107 
H   11   1          5.8149263015        -2.0765265987         1.6768374084 
H   12   1          5.8156426027        -2.0760008782        -1.6779805381 
H   13   1         -5.7170156266         0.5808812347         1.6845250784 
H   14   1         -6.5201254796        -2.2330118281         0.0001081407 
H   15   1         -5.7166355521         0.5788445275        -1.6875304960 
[GTO]
  1 0
s   6 1.0 
    27032.3826310000         0.8598581479
     4052.3871392000         1.6055305368
      922.3272271000         2.7458778516
      261.2407098900         4.2987674426
       85.3546413510         5.8797663284
       31.0350352450         6.3163983216
s   2 1.0 
       12.2608607280         2.9812147522
        4.9987076005         0.9419559635
s   1 1.0 
        1.1703108158         0.8019291610
s   1 1.0 
        0.4647474099         0.4011648062
s   1 1.0 
        0.1850453636         0.2010799406
p   4 1.0 
       63.2749548010         3.0572017144
       14.6270493790         3.3844839414
        4.4501223456         2.9474262132
        1.5275799647         1.7118271494
p   1 1.0 
        0.5293511794         0.6436057926
p   1 1.0 
        0.1747842127         0.1610897254
d   1 1.0 
        2.3140000000        12.3767310624
d   1 1.0 
        0.6450000000         1.3234257612
f   1 1.0 
        1.4280000000        12.7097950062

  2 0
s   6 1.0 
    27032.3826310000         0.8598581479
     4052.3871392000         1.6055305368
      922.3272271000         2.7458778516
      261.2407098900         4.2987674426
       85.3546413510         5.8797663284
       31.0350352450         6.3163983216
s   2 1.0 
       12.2608607280         2.9812147522
        4.9987076005         0.9419559635
s   1 1.0 
        1.1703108158         0.8019291610
s   1 1.0 
        0.4647474099         0.4011648062
s   1 1.0 
        0.1850453636         0.2010799406
p   4 1.0 
       63.2749548010         3.0572017144
       14.6270493790         3.3844839414
        4.4501223456         2.9474262132
        1.5275799647         1.7118271494
p   1 1.0 
        0.5293511794         0.6436057926
p   1 1.0 
        0.1747842127         0.1610897254
d   1 1.0 
        2.3140000000        12.3767310624
d   1 1.0 
        0.6450000000         1.3234257612
f   1 1.0 
        1.4280000000        12.7097950062

  3 0
s   6 1.0 
    27032.3826310000         0.8598581479
     4052.3871392000         1.6055305368
      922.3272271000         2.7458778516
      261.2407098900         4.2987674426
       85.3546413510         5.8797663284
       31.0350352450         6.3163983216
s   2 1.0 
       12.2608607280         2.9812147522
        4.9987076005         0.9419559635
s   1 1.0 
        1.1703108158         0.8019291610
s   1 1.0 
        0.4647474099         0.4011648062
s   1 1.0 
        0.1850453636         0.2010799406
p   4 1.0 
       63.2749548010         3.0572017144
       14.6270493790         3.3844839414
        4.4501223456         2.9474262132
        1.5275799647         1.7118271494
p   1 1.0 
        0.5293511794         0.6436057926
p   1 1.0 
        0.1747842127         0.1610897254
d   1 1.0 
        2.3140000000        12.3767310624
d   1 1.0 
        0.6450000000         1.3234257612
f   1 1.0 
        1.4280000000        12.7097950062

  4 0
s   6 1.0 
    13575.3496820000         0.5435905310
     2035.2333680000         1.0145543947
      463.2256235900         1.7315731970
      131.2001959800         2.6910376290
       42.8530158910         3.6044547126
       15.5841857660         3.7025556986
s   2 1.0 
        6.2067138508         1.8383540830
        2.5764896527         0.5447575605
s   1 1.0 
        0.5769633942         0.4718145038
s   1 1.0 
        0.2297283136         0.2364944676
s   1 1.0 
        0.0951644400         0.1221141848
p   4 1.0 
       34.6972322440         1.3596651507
        7.9582622826         1.4512589486
        2.3780826883         1.2709231419
        0.8143320818         0.8025721189
p   1 1.0 
        0.2888754725         0.3018758868
p   1 1.0 
        0.1005682367         0.0807265016
d   1 1.0 
        1.0970000000         3.3522135855
d   1 1.0 
        0.3180000000         0.3838994974
f   1 1.0 
        0.7610000000         3.0840084332

  5 0
s   6 1.0 
    13575.3496820000         0.5435905310
     2035.2333680000         1.0145543947
      463.2256235900         1.7315731970
      131.2001959800         2.6910376290
       42.8530158910         3.6044547126
       15.5841857660         3.7025556986
s   2 1.0 
        6.2067138508         1.8383540830
        2.5764896527         0.5447575605
s   1 1.0 
        0.5769633942         0.4718145038
s   1 1.0 
        0.2297283136         0.2364944676
s   1 1.0 
        0.0951644400         0.1221141848
p   4 1.0 
       34.6972322440         1.3596651507
        7.9582622826         1.4512589486
        2.3780826883         1.2709231419
        0.8143320818         0.8025721189
p   1 1.0 
        0.2888754725         0.3018758868
p   1 1.0 
        0.1005682367         0.0807265016
d   1 1.0 
        1.0970000000         3.3522135855
d   1 1.0 
        0.3180000000         0.3838994974
f   1 1.0 
        0.7610000000         3.0840084332

  6 0
s   6 1.0 
    13575.3496820000         0.5435905310
     2035.2333680000         1.0145543947
      463.2256235900         1.7315731970
      131.2001959800         2.6910376290
       42.8530158910         3.6044547126
       15.5841857660         3.7025556986
s   2 1.0 
        6.2067138508         1.8383540830
        2.5764896527         0.5447575605
s   1 1.0 
        0.5769633942         0.4718145038
s   1 1.0 
        0.2297283136         0.2364944676
s   1 1.0 
        0.0951644400         0.1221141848
p   4 1.0 
       34.6972322440         1.3596651507
        7.9582622826         1.4512589486
        2.3780826883         1.2709231419
        0.8143320818         0.8025721189
p   1 1.0 
        0.2888754725         0.3018758868
p   1 1.0 
        0.1005682367         0.0807265016
d   1 1.0 
        1.0970000000         3.3522135855
d   1 1.0 
        0.3180000000         0.3838994974
f   1 1.0 
        0.7610000000         3.0840084332

  7 0
s   6 1.0 
    13575.3496820000         0.5435905310
     2035.2333680000         1.0145543947
      463.2256235900         1.7315731970
      131.2001959800         2.6910376290
       42.8530158910         3.6044547126
       15.5841857660         3.7025556986
s   2 1.0 
        6.2067138508         1.8383540830
        2.5764896527         0.5447575605
s   1 1.0 
        0.5769633942         0.4718145038
s   1 1.0 
        0.2297283136         0.2364944676
s   1 1.0 
        0.0951644400         0.1221141848
p   4 1.0 
       34.6972322440         1.3596651507
        7.9582622826         1.4512589486
        2.3780826883         1.2709231419
        0.8143320818         0.8025721189
p   1 1.0 
        0.2888754725         0.3018758868
p   1 1.0 
        0.1005682367         0.0807265016
d   1 1.0 
        1.0970000000         3.3522135855
d   1 1.0 
        0.3180000000         0.3838994974
f   1 1.0 
        0.7610000000         3.0840084332

  8 0
s   3 1.0 
       34.0613410000         0.2556299169
        5.1235746000         0.4613599649
        1.1646626000         0.6811214941
s   1 1.0 
        0.3272304100         0.3083545312
s   1 1.0 
        0.1030724100         0.1296483265
p   1 1.0 
        0.8000000000         1.0784563492

  9 0
s   3 1.0 
       34.0613410000         0.2556299169
        5.1235746000         0.4613599649
        1.1646626000         0.6811214941
s   1 1.0 
        0.3272304100         0.3083545312
s   1 1.0 
        0.1030724100         0.1296483265
p   1 1.0 
        0.8000000000         1.0784563492

 10 0
s   3 1.0 
       34.0613410000         0.2556299169
        5.1235746000         0.4613599649
        1.1646626000         0.6811214941
s   1 1.0 
        0.3272304100         0.3083545312
s   1 1.0 
        0.1030724100         0.1296483265
p   1 1.0 
        0.8000000000         1.0784563492

 11 0
s   3 1.0 
       34.0613410000         0.2556299169
        5.1235746000         0.4613599649
        1.1646626000         0.6811214941
s   1 1.0 
        0.3272304100         0.3083545312
s   1 1.0 
        0.1030724100         0.1296483265
p   1 1.0 
        0.8000000000         1.0784563492

 12 0
s   3 1.0 
       34.0613410000         0.2556299169
        5.1235746000         0.4613599649
        1.1646626000         0.6811214941
s   1 1.0 
        0.3272304100         0.3083545312
s   1 1.0 
        0.1030724100         0.1296483265
p   1 1.0 
        0.8000000000         1.0784563492

 13 0
s   3 1.0 
       34.0613410000         0.2556299169
        5.1235746000         0.4613599649
        1.1646626000         0.6811214941
s   1 1.0 
        0.3272304100         0.3083545312
s   1 1.0 
        0.1030724100         0.1296483265
p   1 1.0 
        0.8000000000         1.0784563492

 14 0
s   3 1.0 
       34.0613410000         0.2556299169
        5.1235746000         0.4613599649
        1.1646626000         0.6811214941
s   1 1.0 
        0.3272304100         0.3083545312
s   1 1.0 
        0.1030724100         0.1296483265
p   1 1.0 
        0.8000000000         1.0784563492

 15 0
s   3 1.0 
       34.0613410000         0.2556299169
        5.1235746000         0.4613599649
        1.1646626000         0.6811214941
s   1 1.0 
        0.3272304100         0.3083545312
s   1 1.0 
        0.1030724100         0.1296483265
p   1 1.0 
        0.8000000000         1.0784563492

[5D]
[7F]
[9G]
[MO]
 Sym=     1a
 Ene= -1.91787976855105E+01
 Spin= Alpha
 Occup= 2.000000
  1      -0.000924288388
  2      -0.001343185211
  3      -0.000369997192
  4       0.002106163710
  5       0.000025190906
  6      -0.000029412902
  7      -0.000134273505
  8       0.000000061620
  9      -0.000377166622
 10       0.000940369747
 11      -0.000000531911
 12       0.001388843469
 13       0.000124027830
 14       0.000000004149
 15      -0.000058690460
 16       0.000000044523
 17      -0.000000018338
 18       0.000065280180
 19       0.000028236450
 20       0.000158970969
 21       0.000000037975
 22      -0.000000046086
 23      -0.000307001409
 24      -0.000232703698
 25      -0.000000018898
 26      -0.000085730964
 27      -0.000010891981
 28      -0.000000020689
 29       0.000000006533
 30      -0.000082373338
 31      -0.000095851026
 32       0.435114993010
 33       0.639378271646
 34       0.037668124418
 35      -0.032243464162
 36       0.006749613002
 37      -0.000160114051
 38       0.002052678116
 39      -0.000001111600
 40      -0.000339609076
 41      -0.005596705238
 42       0.000002979077
 43       0.001311920524
 44      -0.000199182748
 45       0.000000253797
 46      -0.000282534944
 47       0.000000030970
 48      -0.000000122797
 49       0.000238093104
 50       0.000118135126
 51       0.001660855464
 52      -0.000000182546
 53       0.000000786437
 54      -0.001271223058
 55      -0.000667434420
 56      -0.000000219200
 57      -0.000066462086
 58       0.000149526097
 59       0.000000110283
 60       0.000000018007
 61      -0.000232424872
 62       0.000284295895
 63      -0.000016922350
 64      -0.000029777108
 65      -0.000190799059
 66       0.001815377759
 67      -0.000281332584
 68       0.000075322103
 69      -0.000028301555
 70       0.000000019079
 71      -0.000596476358
 72      -0.000855419269
 73       0.000000388644
 74      -0.001167854682
 75      -0.000515365667
 76       0.000000111632
 77      -0.000075126190
 78       0.000000043196
 79      -0.000000061656
 80       0.000014035890
 81      -0.000050142061
 82       0.000151625703
 83      -0.000000261137
 84       0.000000007147
 85      -0.000333291569
 86       0.000378499527
 87       0.000000065928
 88      -0.000015016515
 89      -0.000042596586
 90      -0.000000006485
 91       0.000000017829
 92      -0.000022338569
 93      -0.000055678566
 94       0.000012523928
 95      -0.000063367851
 96       0.000821489466
 97      -0.002395468633
 98      -0.001366292569
 99      -0.000109972385
100      -0.000090556520
101       0.000000018228
102       0.000054359487
103       0.000870782797
104       0.000000081356
105       0.001850146768
106      -0.000079785038
107       0.000000144734
108      -0.000039307707
109       0.000000025636
110      -0.000000007690
111       0.000054396883
112      -0.000004019212
113       0.000532134642
114      -0.000000107780
115       0.000000300900
116      -0.000606746443
117       0.000171765513
118       0.000000010613
119      -0.000020150409
120      -0.000006369676
121      -0.000000118972
122      -0.000000010586
123      -0.000057602752
124      -0.000116107491
125       0.000001533813
126      -0.000006855390
127      -0.000186822244
128       0.001400047719
129      -0.001760518293
130      -0.000004345962
131      -0.000026661851
132       0.000000003329
133      -0.000634801931
134       0.000617041052
135       0.000000037196
136       0.000221934463
137      -0.000194082586
138      -0.000000100755
139      -0.000027214250
140      -0.000000016728
141      -0.000000005567
142       0.000011302313
143      -0.000011691432
144      -0.000118085422
145      -0.000000020154
146       0.000000088218
147      -0.000042615320
148      -0.000364728950
149      -0.000000013219
150       0.000029387073
151      -0.000026783263
152      -0.000000005873
153      -0.000000023364
154      -0.000025822029
155      -0.000030432138
156       0.000036700514
157      -0.000205938625
158      -0.000597816303
159       0.004652198694
160      -0.000725437243
161      -0.000089866536
162      -0.000076377475
163       0.000000027069
164      -0.005307119173
165      -0.006221464658
166       0.000002656035
167       0.004589158770
168       0.002616865118
169      -0.000000770446
170      -0.000283378316
171      -0.000000182677
172      -0.000000165928
173       0.000069739385
174       0.000458459174
175      -0.001259231407
176      -0.000002315027
177      -0.000000760512
178      -0.000292558037
179       0.004790664464
180      -0.000000544871
181       0.000373592365
182       0.000506029127
183      -0.000000446789
184       0.000000106310
185       0.000156460294
186       0.000123846090
187       0.000025148433
188      -0.000125726092
189      -0.001772263375
190       0.006922590163
191      -0.003454406895
192      -0.000193003267
193       0.000076893554
194      -0.000000063473
195       0.004925100342
196      -0.002043529193
197       0.000001726722
198       0.000480859442
199      -0.000022218134
200       0.000000161518
201      -0.000259183735
202       0.000000238542
203      -0.000000108349
204       0.000316127121
205      -0.000255831728
206      -0.001572099268
207       0.000001425921
208      -0.000000689799
209       0.001893446468
210      -0.001514908001
211      -0.000000352571
212      -0.000505771144
213       0.000145300842
214       0.000000389204
215      -0.000000298671
216      -0.000371964428
217       0.000522924993
218      -0.000027449179
219      -0.000024031561
220      -0.000016596359
221      -0.000005198524
222       0.000009454417
223      -0.000001244714
224      -0.000027579860
225      -0.000024470331
226      -0.000016549851
227      -0.000005169474
228       0.000009486262
229       0.000001407112
230       0.000000841966
231       0.000073662169
232       0.000040407227
233       0.000027256046
234      -0.000034573038
235      -0.000000023852
236       0.000000816662
237       0.000001942072
238       0.000282745457
239      -0.000015883843
240      -0.000009246120
241       0.000003652173
242       0.000000774468
243       0.000001906458
244       0.000282684584
245      -0.000015902872
246      -0.000009238095
247      -0.000003666062
248       0.000042501693
249       0.000352265388
250       0.001122801389
251      -0.000038617371
252       0.000056803440
253       0.000055168283
254       0.000039829774
255      -0.000202917441
256       0.000966821523
257      -0.000325049150
258      -0.000044497949
259      -0.000000012993
260       0.000042498421
261       0.000352177692
262       0.001122988839
263      -0.000038606036
264       0.000056749348
265      -0.000055254263
 Sym=     1a
 Ene= -1.91765682311106E+01
 Spin= Alpha
 Occup= 2.000000
  1       0.435118027073
  2       0.639331562510
  3       0.038193337677
  4      -0.033758680323
  5       0.005401558052
  6      -0.000464564037
  7       0.001981640138
  8      -0.000001184543
  9       0.002004820390
 10      -0.005454806835
 11       0.000003423325
 12       0.001185698449
 13      -0.000889922711
 14       0.000000768506
 15      -0.000299671347
 16       0.000000093393
 17      -0.000000128883
 18       0.000313977014
 19      -0.000001535930
 20       0.001853059876
 21      -0.000000574875
 22       0.000000857246
 23      -0.001782238491
 24       0.000071583979
 25      -0.000000235492
 26      -0.000002309400
 27       0.000174037831
 28       0.000000137927
 29      -0.000000032694
 30      -0.000068209033
 31       0.000386913726
 32       0.000922154959
 33       0.001368059875
 34      -0.000184118701
 35       0.001983436636
 36       0.000006026299
 37       0.000077285932
 38      -0.000119563353
 39       0.000000078483
 40       0.000069701105
 41       0.001043123265
 42      -0.000000568841
 43      -0.000476294180
 44      -0.000189542236
 45      -0.000000041642
 46      -0.000060521279
 47      -0.000000005968
 48      -0.000000003228
 49       0.000084880713
 50       0.000002201225
 51       0.000189935813
 52      -0.000000098247
 53      -0.000000084361
 54      -0.000476639977
 55       0.000078837728
 56       0.000000008053
 57       0.000078314863
 58       0.000019322176
 59      -0.000000048778
 60      -0.000000005168
 61       0.000119875566
 62       0.000014712901
 63      -0.000016232805
 64      -0.000030316682
 65      -0.000158189005
 66       0.001585739262
 67      -0.000369247968
 68      -0.000079922598
 69      -0.000055561248
 70       0.000000023987
 71       0.000909870708
 72      -0.000501209943
 73       0.000000364896
 74       0.001180313800
 75      -0.000068933378
 76       0.000000280721
 77      -0.000075158625
 78      -0.000000022023
 79      -0.000000049138
 80      -0.000015951486
 81       0.000055129151
 82       0.000162374719
 83       0.000000244952
 84       0.000000037880
 85      -0.000023832569
 86      -0.000525539607
 87       0.000000045005
 88       0.000026809498
 89      -0.000029926271
 90       0.000000004392
 91      -0.000000002788
 92       0.000052546697
 93      -0.000011318785
 94       0.000016818805
 95      -0.000081332690
 96      -0.002181883563
 97       0.007788730419
 98      -0.005642135099
 99       0.000206684789
100       0.000301523102
101      -0.000000120102
102      -0.003756353397
103      -0.004580819201
104       0.000001570163
105      -0.000587908320
106      -0.000150799693
107      -0.000001448893
108      -0.000198545760
109      -0.000000139161
110      -0.000000084930
111       0.000188073017
112       0.000350448020
113      -0.002288138229
114      -0.000001249517
115      -0.000000944427
116       0.000286781212
117       0.002280008197
118      -0.000000346597
119       0.000462470050
120       0.000349960798
121       0.000000058934
122       0.000000395115
123      -0.000153938371
124       0.000612681719
125       0.000004532012
126      -0.000023920462
127       0.000582588324
128      -0.001162384056
129       0.000789313122
130      -0.000179375310
131       0.000006614558
132       0.000000119693
133       0.001056958543
134      -0.000577584128
135      -0.000001006102
136       0.000095062362
137       0.000899917446
138       0.000000482894
139      -0.000034247270
140      -0.000000039704
141      -0.000000050264
142       0.000071093424
143       0.000103358067
144       0.000947341772
145       0.000000078654
146       0.000000676083
147      -0.001044279394
148      -0.000400744918
149       0.000000007222
150      -0.000089538705
151       0.000010467136
152      -0.000000056500
153      -0.000000032969
154      -0.000199763884
155       0.000056632685
156       0.000035379410
157      -0.000199649207
158      -0.001108173135
159       0.007222877980
160      -0.000437423953
161       0.000057855013
162      -0.000030043818
163       0.000000030414
164       0.008291248847
165      -0.004798905320
166       0.000003645546
167      -0.004143716728
168       0.000942313036
169      -0.000000957134
170      -0.000332133775
171       0.000000330094
172      -0.000000172344
173       0.000354428469
174      -0.000380124038
175      -0.001569195579
176       0.000003260790
177      -0.000000734815
178       0.002614283357
179      -0.004684349523
180      -0.000000711172
181      -0.000573635193
182       0.000398095211
183      -0.000000134472
184      -0.000000456507
185      -0.000219022521
186       0.000041954695
187       0.000010132127
188      -0.000050945598
189       0.000496740251
190      -0.000938446390
191      -0.001399925009
192       0.000163580341
193       0.000000079523
194       0.000000017863
195      -0.000587794021
196       0.000197699219
197      -0.000000455364
198      -0.001033298288
199      -0.000423603955
200       0.000000156031
201      -0.000037390916
202      -0.000000003100
203      -0.000000026657
204       0.000031406507
205       0.000035271697
206       0.000369201487
207       0.000000170410
208      -0.000000054129
209      -0.000305516159
210      -0.000357864980
211      -0.000000072298
212       0.000020241195
213       0.000026663064
214       0.000000074758
215      -0.000000020599
216       0.000100454658
217       0.000028664890
218       0.000035699553
219       0.000914443149
220       0.001341880803
221       0.000052245479
222      -0.000076553119
223      -0.000033217859
224       0.000035643311
225       0.000914324955
226       0.001343921996
227       0.000052271652
228      -0.000076557142
229       0.000033289737
230       0.000117129991
231       0.000667858574
232      -0.000524127142
233      -0.000023588047
234      -0.000104353358
235      -0.000000215782
236      -0.000042635726
237      -0.000391437578
238       0.000522580530
239      -0.000133257453
240      -0.000082810465
241       0.000036817355
242      -0.000042940714
243      -0.000392967378
244       0.000523527045
245      -0.000133154598
246      -0.000082900817
247      -0.000037093134
248      -0.000024379829
249      -0.000084880149
250       0.000021134315
251       0.000009567344
252       0.000033484685
253       0.000009346938
254       0.000043905736
255       0.000377456252
256      -0.000422112581
257       0.000013801956
258       0.000077362713
259      -0.000000069305
260      -0.000024470271
261      -0.000085403628
262       0.000021341896
263       0.000009545461
264       0.000033535501
265      -0.000009534195
 Sym=     1a
 Ene= -1.91181929747660E+01
 Spin= Alpha
 Occup= 2.000000
  1       0.000018534164
  2       0.000017584068
  3      -0.000140026250
  4       0.001120988150
  5       0.001156524261
  6      -0.000055075920
  7      -0.000034338215
  8       0.000000022021
  9      -0.000329025168
 10       0.000737600642
 11      -0.000000485425
 12       0.001138981664
 13       0.001989625109
 14      -0.000000707120
 15      -0.000060904353
 16       0.000000021993
 17      -0.000000018419
 18       0.000064237023
 19       0.000010747817
 20       0.000098594752
 21       0.000000097399
 22      -0.000000093455
 23      -0.000265363872
 24      -0.000272882955
 25      -0.000000071086
 26      -0.000079992241
 27       0.000032474249
 28      -0.000000055946
 29      -0.000000060113
 30       0.000003665518
 31      -0.000076576359
 32       0.000019061636
 33       0.000019182605
 34      -0.000132073058
 35       0.001101925805
 36       0.000529119525
 37       0.000069758247
 38      -0.000007008098
 39       0.000000009188
 40      -0.000005790703
 41       0.000707001611
 42      -0.000000365455
 43      -0.001893493584
 44       0.001318647589
 45      -0.000000913444
 46      -0.000063405979
 47       0.000000000412
 48      -0.000000028332
 49       0.000054045990
 50       0.000033458606
 51       0.000125031918
 52      -0.000000059228
 53      -0.000000055263
 54      -0.000345857554
 55       0.000031440819
 56      -0.000000056670
 57       0.000062861344
 58       0.000057951365
 59      -0.000000095549
 60       0.000000016259
 61       0.000057605180
 62      -0.000048675043
 63       0.435081154325
 64       0.639489486827
 65       0.036648201448
 66      -0.031419019687
 67       0.012802086631
 68       0.000353686455
 69      -0.002233532860
 70       0.000001193046
 71      -0.001059965366
 72       0.006506671432
 73      -0.000003557648
 74       0.000145984528
 75      -0.000973779977
 76       0.000000626307
 77      -0.000104341719
 78       0.000000027197
 79      -0.000000255695
 80      -0.000293592199
 81      -0.000096973250
 82       0.000630206091
 83      -0.000000182502
 84       0.000001321937
 85       0.001347719515
 86       0.000456623844
 87       0.000000156386
 88       0.000017707772
 89      -0.000119449810
 90       0.000000188524
 91       0.000000062240
 92      -0.000067836943
 93       0.000128221904
 94       0.000010167047
 95      -0.000050361197
 96       0.000700435080
 97      -0.002485119003
 98      -0.004613483941
 99      -0.000071598358
100      -0.000095104989
101      -0.000000006288
102      -0.000377011051
103       0.001147668998
104      -0.000000360169
105      -0.000198430245
106       0.000225981706
107      -0.000000585755
108      -0.000044141945
109       0.000000037842
110      -0.000000060836
111       0.000067849854
112      -0.000035951978
113       0.000505557166
114      -0.000000138404
115       0.000000090952
116      -0.000533392540
117       0.000569052270
118      -0.000000039354
119       0.000060905153
120      -0.000001879345
121      -0.000000003030
122       0.000000037019
123      -0.000038482441
124      -0.000089226841
125       0.000000120809
126       0.000000061194
127      -0.000324016490
128       0.001975968075
129       0.001628243195
130       0.000034545342
131      -0.000052571452
132      -0.000000053076
133      -0.001080828746
134       0.001042668118
135       0.000000451257
136      -0.000499569544
137       0.000159044962
138       0.000000030043
139      -0.000024193296
140       0.000000050528
141      -0.000000020730
142       0.000019373115
143      -0.000036621381
144      -0.000287999138
145      -0.000000212748
146      -0.000000036217
147       0.000058510483
148      -0.000407636445
149      -0.000000011767
150       0.000020190413
151      -0.000023880459
152      -0.000000015921
153      -0.000000008209
154      -0.000023837653
155      -0.000054708870
156       0.000032625906
157      -0.000209942502
158       0.000394862039
159       0.005317900595
160      -0.003519466884
161      -0.000113437517
162       0.000762144551
163      -0.000000400066
164      -0.001464674827
165       0.007938859037
166      -0.000004413234
167       0.000769759407
168      -0.006017588989
169       0.000003226705
170      -0.000228939195
171       0.000000057613
172      -0.000000399934
173      -0.000332167603
174      -0.000110383496
175      -0.001551672760
176       0.000000474720
177      -0.000004039939
178      -0.004764846905
179      -0.001357976526
180       0.000000357031
181       0.000049063343
182      -0.000264068277
183       0.000000040792
184       0.000000039980
185       0.000119645314
186      -0.000225300643
187       0.000007172976
188      -0.000034797108
189       0.000344199871
190      -0.001064298687
191      -0.003344189632
192       0.000163020050
193       0.000005771723
194       0.000000030520
195      -0.000756580593
196       0.000282846993
197      -0.000000336243
198      -0.000166510923
199      -0.000032072817
200       0.000000031297
201      -0.000033305309
202      -0.000000017028
203      -0.000000020700
204       0.000016663359
205       0.000047295724
206       0.000220404778
207       0.000000071893
208       0.000000060129
209      -0.000144628068
210      -0.000230111854
211      -0.000000024771
212      -0.000016091391
213       0.000014364081
214       0.000000001626
215      -0.000000039158
216       0.000032531834
217       0.000004894205
218      -0.000048966931
219       0.000151132576
220       0.001191635046
221      -0.000091213104
222      -0.000000876614
223       0.000006074603
224      -0.000049133897
225       0.000151581200
226       0.001191996621
227      -0.000091245040
228      -0.000000957286
229      -0.000006176258
230      -0.000015102914
231      -0.000062688262
232       0.000034404036
233       0.000035664244
234      -0.000005574018
235       0.000000028078
236       0.000006356905
237       0.000050400087
238      -0.000171232120
239       0.000008390260
240       0.000009508280
241      -0.000004606192
242       0.000006388966
243       0.000050896426