
                                 *****************
                                 * O   R   C   A *
                                 *****************

                                            #,                                       
                                            ###                                      
                                            ####                                     
                                            #####                                    
                                            ######                                   
                                           ########,                                 
                                     ,,################,,,,,                         
                               ,,#################################,,                 
                          ,,##########################################,,             
                       ,#########################################, ''#####,          
                    ,#############################################,,   '####,        
                  ,##################################################,,,,####,       
                ,###########''''           ''''###############################       
              ,#####''   ,,,,##########,,,,          '''####'''          '####       
            ,##' ,,,,###########################,,,                        '##       
           ' ,,###''''                  '''############,,,                           
         ,,##''                                '''############,,,,        ,,,,,,###''
      ,#''                                            '''#######################'''  
     '                                                          ''''####''''         
             ,#######,   #######,   ,#######,      ##                                
            ,#'     '#,  ##    ##  ,#'     '#,    #''#        ,####,   ,####,        
            ##       ##  ##   ,#'  ##            #'  '#       #'       #'  '#        
            ##       ##  #######   ##           ,######,      #####,   #    #        
            '#,     ,#'  ##    ##  '#,     ,#' ,#      #,     #,   #   #,  ,#        
             '#######'   ##     ##  '#######'  #'      '#     '####' # '####'        



                #########################################################
                #                        -***-                          #
                #          Department of theory and spectroscopy        #
                #                                                       #
                #                      Frank Neese                      #
                #                                                       #
                #     Directorship, Architecture, Infrastructure        #
                #                    SHARK, DRIVERS                     #
                #        Core code/Algorithms in most modules           #
                #                                                       #
                #        Max Planck Institute fuer Kohlenforschung      #
                #                Kaiser Wilhelm Platz 1                 #
                #                 D-45470 Muelheim/Ruhr                 #
                #                      Germany                          #
                #                                                       #
                #                  All rights reserved                  #
                #                        -***-                          #
                #########################################################


                         Program Version 6.0.1  -  RELEASE   -


 With contributions from (in alphabetic order):
[Max-Planck-Institut fuer Kohlenforschung]                               
  Daniel Aravena         : Magnetic Suceptibility                        
  Michael Atanasov       : Ab Initio Ligand Field Theory (pilot matlab implementation)
  Alexander A. Auer      : GIAO ZORA, VPT2 properties, NMR spectrum      
  Ute Becker             : All parallelization in ORCA, NUMFREQ, NUMCALC 
  Giovanni Bistoni       : ED, misc. LED, open-shell LED, HFLD           
  Martin Brehm           : Molecular dynamics                            
  Dmytro Bykov           : pre 5.0 version of the SCF Hessian            
  Marcos Casanova-Páez   : Triplet and SCS-CIS(D). UHF-(DLPNO)-IP/EA/STEOM-CCSD. UHF-CVS-IP/STEOM-CCSD   
  Vijay G. Chilkuri      : MRCI spin determinant printing, contributions to CSF-ICE 
  Pauline Colinet        : FMM embedding                                 
  Dipayan Datta          : RHF DLPNO-CCSD density                        
  Achintya Kumar Dutta   : EOM-CC, STEOM-CC                              
  Nicolas Foglia         : Exact transition moments, OPA infrastructure, MCD improvements    
  Dmitry Ganyushin       : Spin-Orbit,Spin-Spin,Magnetic field MRCI      
  Miquel Garcia-Rates    : C-PCM and meta-GGA Hessian, CCSD/C-PCM, Gaussian charge scheme 
  Tiago L. C. Gouveia    : GS-ROHF, GS-ROCIS                             
  Yang Guo               : DLPNO-NEVPT2, F12-NEVPT2, CIM, IAO-localization        
  Andreas Hansen         : Spin unrestricted coupled pair/coupled cluster methods 
  Ingolf Harden          : AUTO-CI MPn and infrastructure                
  Benjamin Helmich-Paris : MC-RPA, TRAH-(SCF,CASSCF), AVAS, COSX integrals, SCF dyn. polar. 
  Lee Huntington         : MR-EOM, pCC                                   
  Robert Izsak           : Overlap fitted RIJCOSX, COSX-SCS-MP3, EOM     
  Riya Kayal             : Wick's Theorem for AUTO-CI, AUTO-CI UHF-CCSDT 
  Emily Kempfer          : AUTO-CI, RHF CISDT and CCSDT                  
  Christian Kollmar      : KDIIS, OOCD, Brueckner-CCSD(T), CCSD density, CASPT2, CASPT2-K, improved NEVPT2 
  Axel Koslowski         : Symmetry handling                             
  Simone Kossmann        : meta-GGA functionals, TD-DFT gradient, OOMP2, (MP2 Hessian; deprecated post 5.0) 
  Lucas Lang             : DCDCAS                                        
  Marvin Lechner         : AUTO-CI (C++ implementation), FIC-MRCC        
  Spencer Leger          : CASSCF response                               
  Dagmar Lenk            : GEPOL surface, SMD, ORCA-2-JSON               
  Dimitrios Liakos       : Extrapolation schemes; Compound Job, initial MDCI parallelization 
  Dimitrios Manganas     : Further ROCIS development; embedding schemes. LFT, Crystal Embedding 
  Dimitrios Pantazis     : SARC Basis sets                               
  Anastasios Papadopoulos: AUTO-CI, single reference methods and gradients 
  Taras Petrenko         : pre 6.0 DFT Hessian and TD-DFT gradient, (ASA, deprecated), ECA, 1-Electron XAS/XES, NRVS 
  Peter Pinski           : DLPNO-MP2, DLPNO-MP2 Gradient                 
  Christoph Reimann      : Effective Core Potentials                     
  Marius Retegan         : Local ZFS, SOC                                
  Christoph Riplinger    : Optimizer, TS searches, QM/MM, DLPNO-CCSD(T), (RO)-DLPNO pert. Triples 
  Michael Roemelt        : Original ROCIS implementation                 
  Masaaki Saitow         : Open-shell DLPNO-CCSD energy and density      
  Barbara Sandhoefer     : DKH picture change effects                    
  Kantharuban Sivalingam : CASSCF convergence/infrastructure, NEVPT2 and variants, FIC-MRCI 
  Bernardo de Souza      : ESD, SOC TD-DFT                               
  Georgi L. Stoychev     : AutoAux, RI-MP2 NMR, DLPNO-MP2 response, X2C  
  Van Anh Tran           : RI-MP2 g-tensors                              
  Willem Van den Heuvel  : Paramagnetic NMR                              
  Zikuan Wang            : NOTCH, Electric field optimization            
  Frank Wennmohs         : Technical directorship and infrastructure     
  Hang Xu                : AUTO-CI-Response properties                   
                                                                         
[FACCTs GmbH]                                                            
  Markus Bursch, Miquel Garcia-Rates, Christoph Riplinger, Bernardo de Souza, Georgi L. Stoychev 
                                                                 
  APM, Basis sets (HGBS, AHGBS, def-TZVP (Ac-Lr), def2-XVPD (La-Lu)), CI-OPT, improved COSX, DLPNO-Multilevel,           
  DOCKER, DRACO, updates on ESD, GOAT, IRC, LR-CPCM, MBIS, meta-GGA TD-DFT gradient, ML-optimized integration grids, 
  MM, NACMEs, nearIR, NEB, NEB-TS, NL-DFT gradient (VV10), 2- and 3-layer-ONIOM, interface openCOSMO-RS, QMMM,   
  Crystal-QMMM, SF, symmetry and pop. for TD-DFT, r2SCAN hybrids, SOLVATOR                                   
                                                                         
[Other institutions]                                                     
  V. Asgeirsson          : NEB                                           
  Christoph Bannwarth    : sTDA-DFT, sTD-DFT, PBEh-3c, B97-3c, D3        
  Sebastian Ehlert       : rSCAN, r2SCAN, r2SCAN-3c, D4, dhf basis sets  
  Marvin Friede          : D4 for Fr, Ra, Ac-Lr                          
  Lars Goerigk           : TD-DFT with DH, B97 family of functionals     
  Stefan Grimme          : VdW corrections, initial TS optimization, DFT functionals, gCP, sTDA/sTD-DF 
  Waldemar Hujo          : DFT-NL                                        
  H. Jonsson             : NEB                                           
  Holger Kruse           : gCP                                           
  Marcel Mueller         : wB97X-3c, vDZP basis set                      
  Hagen Neugebauer       : wr2SCAN                                       
  Tobias Risthaus        : range-separated hybrid DFT                    
  Lukas Wittmann         : regularized MP2, r2SCAN double-hybrids, wr2SCAN        
                                                                         
We gratefully acknowledge several colleagues who have allowed us to      
interface, adapt or use parts of their codes:                            
  Ed Valeev, F. Pavosevic, A. Kumar             : LibInt (2-el integral package), F12 methods 
  Garnet Chan, S. Sharma, J. Yang, R. Olivares  : DMRG                   
  Ulf Ekstrom                                   : XCFun DFT Library      
  Mihaly Kallay                                 : mrcc  (arbitrary order and MRCC methods)
  Frank Weinhold                                : gennbo (NPA and NBO analysis)           
  Simon Mueller                                 : openCOSMO-RS                            
  Christopher J. Cramer and Donald G. Truhlar   : smd solvation model                     
  S Lehtola, MJT Oliveira, MAL Marques          : LibXC Library                           
  Liviu Ungur et al                             : ANISO software                          


 Your calculation uses the libint2 library for the computation of 2-el integrals
 For citations please refer to: http://libint.valeyev.net

 Your ORCA version has been built with support for libXC version: 6.2.2
 For citations please refer to: https://libxc.gitlab.io

 This ORCA versions uses:
   CBLAS   interface :  Fast vector & matrix operations
   LAPACKE interface :  Fast linear algebra routines
   SCALAPACK package :  Parallel linear algebra routines
   Shared memory     :  Shared parallel matrices
   BLAS/LAPACK       :  OpenBLAS 0.3.27  USE64BITINT DYNAMIC_ARCH NO_AFFINITY SkylakeX SINGLE_THREADED
        Core in use  :  SkylakeX
   Copyright (c) 2011-2014, The OpenBLAS Project


NOTE: MaxCore=5000 MB was set to SCF,MP2,MDCI,CIPSI,MRCI and CIS
      => If you want to overwrite this, your respective input block should be placed after the MaxCore statement
Warning: RI is on but no J-basis has been assigned. Assigning Def2/J (nothing to worry about!)
================================================================================

----- Orbital basis set information -----
Your calculation utilizes the basis: def2-TZVP
   F. Weigend and R. Ahlrichs, Phys. Chem. Chem. Phys. 7, 3297 (2005).

----- AuxJ basis set information -----
Your calculation utilizes the auxiliary basis: def2/J
   F. Weigend, Phys. Chem. Chem. Phys. 8, 1057 (2006).

================================================================================
                                        WARNINGS
                       Please study these warnings very carefully!
================================================================================


WARNING: Geometry Optimization
  ===> : Switching off AutoStart
         For restart on a previous wavefunction, please use MOREAD

================================================================================
                                       INPUT FILE
================================================================================
NAME = FEC.inp
|  1> ! Opt B3LYP def2-TZVP TightSCF TightOpt
|  2> 
|  3> %maxcore 5000
|  4> 
|  5> %pal
|  6> nprocs 20
|  7> end
|  8> 
|  9> * xyz 0 1
| 10> F         -1.73320        0.68190       -0.74970
| 11> O          0.06590        0.89910        0.56450
| 12> O          0.48020       -1.13660       -0.30030
| 13> O          2.16930        0.41450       -0.21450
| 14> C         -1.18080        0.24700        0.41100
| 15> C         -0.81200       -1.19520        0.29280
| 16> C          1.01050        0.08940       -0.00390
| 17> H         -1.86370        0.46440        1.23610
| 18> H         -0.71650       -1.68710        1.26590
| 19> H         -1.49640       -1.75840       -0.34660
| 20> *
| 21> 
| 22>                          ****END OF INPUT****
================================================================================

                       *****************************
                       * Geometry Optimization Run *
                       *****************************

Geometry optimization settings:
Update method            Update   .... BFGS
Choice of coordinates    CoordSys .... (2022) Redundant Internals
Initial Hessian          InHess   .... Almloef's Model
Max. no of cycles        MaxIter  .... 50

Convergence Tolerances:
Energy Change            TolE     ....  1.0000e-06 Eh
Max. Gradient            TolMAXG  ....  1.0000e-04 Eh/bohr
RMS Gradient             TolRMSG  ....  3.0000e-05 Eh/bohr
Max. Displacement        TolMAXD  ....  1.0000e-03 bohr
RMS Displacement         TolRMSD  ....  6.0000e-04 bohr
Strict Convergence                .... False

------------------------------------------------------------------------------
                        ORCA OPTIMIZATION COORDINATE SETUP
------------------------------------------------------------------------------

The optimization will be done in redundant internal coordinates (2022)
Making redundant internal coordinates   ...  (2022 redundants) done
Evaluating the initial hessian          ...  (Almloef) done
Evaluating the coordinates              ...  done
Calculating the B-matrix                .... done
Calculating the G-matrix                .... done
Diagonalizing the G-matrix              .... done
The first mode is                       ....   19
The number of degrees of freedom        ....   24

    -----------------------------------------------------------------
                    Redundant Internal Coordinates


    -----------------------------------------------------------------
         Definition                    Initial Value    Approx d2E/dq
    -----------------------------------------------------------------
      1. B(C   4,O   1)                  1.4153         0.509941   
      2. B(C   4,F   0)                  1.3570         0.586923   
      3. B(C   5,O   2)                  1.4230         0.495674   
      4. B(C   5,C   4)                  1.4933         0.427504   
      5. B(C   6,O   2)                  1.3683         0.606113   
      6. B(C   6,O   3)                  1.2218         1.037972   
      7. B(C   6,O   1)                  1.3678         0.607078   
      8. B(H   7,C   4)                  1.0929         0.356299   
      9. B(H   8,C   5)                  1.0945         0.354149   
     10. B(H   9,C   5)                  1.0929         0.356284   
     11. A(C   4,O   1,C   6)          106.8880         0.412181   
     12. A(C   5,O   2,C   6)          107.3707         0.409996   
     13. A(F   0,C   4,O   1)          107.6789         0.407929   
     14. A(F   0,C   4,H   7)          109.1255         0.345449   
     15. A(O   1,C   4,C   5)          103.6518         0.389997   
     16. A(O   1,C   4,H   7)          112.1409         0.338812   
     17. A(C   5,C   4,H   7)          113.9662         0.331030   
     18. A(F   0,C   4,C   5)          110.0199         0.397994   
     19. A(C   4,C   5,H   8)          112.6570         0.330698   
     20. A(O   2,C   5,H   8)          108.0487         0.336873   
     21. A(C   4,C   5,H   9)          112.9137         0.331027   
     22. A(O   2,C   5,C   4)          102.5614         0.388070   
     23. A(H   8,C   5,H   9)          110.0709         0.289595   
     24. A(O   2,C   5,H   9)          110.2449         0.337210   
     25. A(O   1,C   6,O   2)          110.6574         0.425069   
     26. A(O   2,C   6,O   3)          124.6563         0.468447   
     27. A(O   1,C   6,O   3)          124.6860         0.468584   
     28. D(F   0,C   4,O   1,C   6)    -91.7081         0.020586   
     29. D(C   5,C   4,O   1,C   6)     24.8547         0.020586   
     30. D(H   7,C   4,O   1,C   6)    148.2293         0.020586   
     31. D(H   8,C   5,C   4,H   7)    -35.8208         0.014450   
     32. D(H   9,C   5,O   2,C   6)    144.3782         0.019414   
     33. D(O   2,C   5,C   4,F   0)     85.3404         0.014450   
     34. D(H   8,C   5,O   2,C   6)    -95.2975         0.019414   
     35. D(O   2,C   5,C   4,H   7)   -151.7320         0.014450   
     36. D(H   8,C   5,C   4,F   0)   -158.7483         0.014450   
     37. D(H   8,C   5,C   4,O   1)     86.3472         0.014450   
     38. D(O   2,C   5,C   4,O   1)    -29.5641         0.014450   
     39. D(C   4,C   5,O   2,C   6)     23.8916         0.019414   
     40. D(O   1,C   6,O   2,C   5)     -9.3215         0.026868   
     41. D(O   3,C   6,O   1,C   4)    169.6507         0.026959   
     42. D(O   2,C   6,O   1,C   4)    -10.5472         0.026959   
     43. D(O   3,C   6,O   2,C   5)    170.4806         0.026868   
    -----------------------------------------------------------------

Number of atoms                         .... 10
Number of degrees of freedom            .... 43


         *************************************************************
         *                GEOMETRY OPTIMIZATION CYCLE   1            *
         *************************************************************
---------------------------------
CARTESIAN COORDINATES (ANGSTROEM)
---------------------------------
  F     -1.733200    0.681900   -0.749700
  O      0.065900    0.899100    0.564500
  O      0.480200   -1.136600   -0.300300
  O      2.169300    0.414500   -0.214500
  C     -1.180800    0.247000    0.411000
  C     -0.812000   -1.195200    0.292800
  C      1.010500    0.089400   -0.003900
  H     -1.863700    0.464400    1.236100
  H     -0.716500   -1.687100    1.265900
  H     -1.496400   -1.758400   -0.346600

----------------------------
CARTESIAN COORDINATES (A.U.)
----------------------------
  NO LB      ZA    FRAG     MASS         X           Y           Z
   0 F     9.0000    0    18.998   -3.275273    1.288604   -1.416728
   1 O     8.0000    0    15.999    0.124533    1.699053    1.066750
   2 O     8.0000    0    15.999    0.907446   -2.147863   -0.567485
   3 O     8.0000    0    15.999    4.099383    0.783291   -0.405346
   4 C     6.0000    0    12.011   -2.231389    0.466762    0.776677
   5 C     6.0000    0    12.011   -1.534458   -2.258601    0.553312
   6 C     6.0000    0    12.011    1.909568    0.168942   -0.007370
   7 H     1.0000    0     1.008   -3.521883    0.877589    2.335890
   8 H     1.0000    0     1.008   -1.353989   -3.188157    2.392204
   9 H     1.0000    0     1.008   -2.827786   -3.322894   -0.654979

--------------------------------
INTERNAL COORDINATES (ANGSTROEM)
--------------------------------
 F      0   0   0     0.000000000000     0.00000000     0.00000000
 O      1   0   0     2.238539320629     0.00000000     0.00000000
 O      2   1   0     2.250243991215    80.47786342     0.00000000
 O      2   1   3     2.294770079986   121.12361754    47.00113868
 C      1   2   3     1.357021834754    37.04065833    73.55272648
 C      3   2   1     1.423018766566    73.13533398   304.68667103
 C      4   2   1     1.221826423843    29.34937335   304.27914466
 H      5   1   2     1.092888457254   109.12551984   121.95194377
 H      6   3   2     1.094536189443   108.04865756   259.17820879
 H      6   3   2     1.092899794126   110.24489356   138.85393584

---------------------------
INTERNAL COORDINATES (A.U.)
---------------------------
 F      0   0   0     0.000000000000     0.00000000     0.00000000
 O      1   0   0     4.230226256002     0.00000000     0.00000000
 O      2   1   0     4.252344877899    80.47786342     0.00000000
 O      2   1   3     4.336486991491   121.12361754    47.00113868
 C      1   2   3     2.564399625437    37.04065833    73.55272648
 C      3   2   1     2.689115752241    73.13533398   304.68667103
 C      4   2   1     2.308917324251    29.34937335   304.27914466
 H      5   1   2     2.065259879135   109.12551984   121.95194377
 H      6   3   2     2.068373641713   108.04865756   259.17820879
 H      6   3   2     2.065281302716   110.24489356   138.85393584

---------------------
BASIS SET INFORMATION
---------------------
There are 4 groups of distinct atoms

 Group   1 Type F   : 11s6p2d1f contracted to 5s3p2d1f pattern {62111/411/11/1}
 Group   2 Type O   : 11s6p2d1f contracted to 5s3p2d1f pattern {62111/411/11/1}
 Group   3 Type C   : 11s6p2d1f contracted to 5s3p2d1f pattern {62111/411/11/1}
 Group   4 Type H   : 5s1p contracted to 3s1p pattern {311/1}

Atom   0F    basis set group =>   1
Atom   1O    basis set group =>   2
Atom   2O    basis set group =>   2
Atom   3O    basis set group =>   2
Atom   4C    basis set group =>   3
Atom   5C    basis set group =>   3
Atom   6C    basis set group =>   3
Atom   7H    basis set group =>   4
Atom   8H    basis set group =>   4
Atom   9H    basis set group =>   4
---------------------------------
AUXILIARY/J BASIS SET INFORMATION
---------------------------------
There are 4 groups of distinct atoms

 Group   1 Type F   : 12s5p4d2f1g contracted to 6s4p3d1f1g pattern {711111/2111/211/2/1}
 Group   2 Type O   : 12s5p4d2f1g contracted to 6s4p3d1f1g pattern {711111/2111/211/2/1}
 Group   3 Type C   : 12s5p4d2f1g contracted to 6s4p3d1f1g pattern {711111/2111/211/2/1}
 Group   4 Type H   : 5s2p1d contracted to 3s1p1d pattern {311/2/1}

Atom   0F    basis set group =>   1
Atom   1O    basis set group =>   2
Atom   2O    basis set group =>   2
Atom   3O    basis set group =>   2
Atom   4C    basis set group =>   3
Atom   5C    basis set group =>   3
Atom   6C    basis set group =>   3
Atom   7H    basis set group =>   4
Atom   8H    basis set group =>   4
Atom   9H    basis set group =>   4
--------------------------------------------------------------------------
By default, for Open MPI 4.0 and later, infiniband ports on a device
are not used by default.  The intent is to use UCX for these devices.
You can override this policy by setting the btl_openib_allow_ib MCA parameter
to true.

  Local host:              psid04
  Local adapter:           mlx5_0
  Local port:              1

--------------------------------------------------------------------------
--------------------------------------------------------------------------
WARNING: There was an error initializing an OpenFabrics device.

  Local host:   psid04
  Local device: mlx5_0
--------------------------------------------------------------------------


           ************************************************************
           *        Program running with 20 parallel MPI-processes    *
           *              working on a common directory               *
           ************************************************************
------------------------------------------------------------------------------
                             ORCA STARTUP CALCULATIONS
                           -- RI-GTO INTEGRALS CHOSEN --
------------------------------------------------------------------------------
------------------------------------------------------------------------------
                   ___                                                        
                  /   \      - P O W E R E D   B Y -                         
                 /     \                                                     
                 |  |  |   _    _      __       _____    __    __             
                 |  |  |  | |  | |    /  \     |  _  \  |  |  /  |          
                  \  \/   | |  | |   /    \    | | | |  |  | /  /          
                 / \  \   | |__| |  /  /\  \   | |_| |  |  |/  /          
                |  |  |   |  __  | /  /__\  \  |    /   |      \           
                |  |  |   | |  | | |   __   |  |    \   |  |\   \          
                \     /   | |  | | |  |  |  |  | |\  \  |  | \   \       
                 \___/    |_|  |_| |__|  |__|  |_| \__\ |__|  \__/        
                                                                              
                      - O R C A' S   B I G   F R I E N D -                    
                                      &                                       
                       - I N T E G R A L  F E E D E R -                       
                                                                              
 v1 FN, 2020, v2 2021, v3 2022-2024                                           
------------------------------------------------------------------------------


----------------------
SHARK INTEGRAL PACKAGE
----------------------

Number of atoms                             ...     10
Number of basis functions                   ...    235
Number of shells                            ...     89
Maximum angular momentum                    ...      3
Integral batch strategy                     ... SHARK/LIBINT Hybrid
RI-J (if used) integral strategy            ... SPLIT-RIJ (Revised 2003 algorithm where possible)
Printlevel                                  ...      1
Contraction scheme used                     ... SEGMENTED contraction
Prescreening option                         ... SCHWARTZ
   Thresh                                   ... 2.500e-11
   Tcut                                     ... 2.500e-12
   Tpresel                                  ... 2.500e-12 
Coulomb Range Separation                    ... NOT USED
Exchange Range Separation                   ... NOT USED
Multipole approximations                    ... NOT USED
Finite Nucleus Model                        ... NOT USED
CABS basis                                  ... NOT available
Auxiliary Coulomb fitting basis             ... AVAILABLE
   # of basis functions in Aux-J            ...    376
   # of shells in Aux-J                     ...    120
   Maximum angular momentum in Aux-J        ...      4
Auxiliary J/K fitting basis                 ... NOT available
Auxiliary Correlation fitting basis         ... NOT available
Auxiliary 'external' fitting basis          ... NOT available

Checking pre-screening integrals            ... done (  0.0 sec) Dimension = 89
Check shell pair data                       ... done (  0.0 sec)
Shell pair information
Shell pair cut-off parameter TPreSel        ...   2.5e-12
Total number of shell pairs                 ...      4005
Shell pairs after pre-screening             ...      3774
Total number of primitive shell pairs       ...     12724
Primitive shell pairs kept                  ...      9175
          la=0 lb=0:    884 shell pairs
          la=1 lb=0:   1016 shell pairs
          la=1 lb=1:    297 shell pairs
          la=2 lb=0:    572 shell pairs
          la=2 lb=1:    330 shell pairs
          la=2 lb=2:    102 shell pairs
          la=3 lb=0:    286 shell pairs
          la=3 lb=1:    164 shell pairs
          la=3 lb=2:     96 shell pairs
          la=3 lb=3:     27 shell pairs

Calculating one electron integrals          ... done (  0.0 sec)
Calculating RI/J V-Matrix + Cholesky decomp.... done (  0.1 sec)
Calculating Nuclear repulsion               ... done (  0.0 sec) ENN=    324.172599122515 Eh

Diagonalization of the overlap matrix:
Smallest eigenvalue                        ... 3.918e-04
Time for diagonalization                   ...    0.005 sec
Threshold for overlap eigenvalues          ... 1.000e-07
Number of eigenvalues below threshold      ... 0
Time for construction of square roots      ...    0.004 sec
Total time needed                          ...    0.014 sec

-------------------
DFT GRID GENERATION
-------------------

General Integration Accuracy     IntAcc      ... 4.388
Radial Grid Type                 RadialGrid  ... OptM3 with GC (2021)
Angular Grid (max. ang.)         AngularGrid ... 4 (Lebedev-302)
Angular grid pruning method      GridPruning ... 4 (adaptive)
Weight generation scheme         WeightScheme... mBecke (2022)
Basis function cutoff            BFCut       ... 1.0000e-11
Integration weight cutoff        WCut        ... 1.0000e-14
Partially contracted basis set               ... off
Rotationally invariant grid construction     ... off
Angular grids for H and He will be reduced by one unit

Total number of grid points                  ...    52194
Total number of batches                      ...      818
Average number of points per batch           ...       63
Average number of grid points per atom       ...     5219

--------------------
COSX GRID GENERATION
--------------------

GRIDX 1
-------
General Integration Accuracy     IntAcc      ... 3.816
Radial Grid Type                 RadialGrid  ... OptM3 with GC (2021)
Angular Grid (max. ang.)         AngularGrid ... 1 (Lebedev-50)
Angular grid pruning method      GridPruning ... 4 (adaptive)
Weight generation scheme         WeightScheme... mBecke (2022)
Basis function cutoff            BFCut       ... 1.0000e-11
Integration weight cutoff        WCut        ... 1.0000e-14
Partially contracted basis set               ... on
Rotationally invariant grid construction     ... off
Angular grids for H and He will be reduced by one unit

Total number of grid points                  ...     6627
Total number of batches                      ...       59
Average number of points per batch           ...      112
Average number of grid points per atom       ...      663
UseSFitting                                  ... on

GRIDX 2
-------
General Integration Accuracy     IntAcc      ... 4.020
Radial Grid Type                 RadialGrid  ... OptM3 with GC (2021)
Angular Grid (max. ang.)         AngularGrid ... 2 (Lebedev-110)
Angular grid pruning method      GridPruning ... 4 (adaptive)
Weight generation scheme         WeightScheme... mBecke (2022)
Basis function cutoff            BFCut       ... 1.0000e-11
Integration weight cutoff        WCut        ... 1.0000e-14
Partially contracted basis set               ... on
Rotationally invariant grid construction     ... off
Angular grids for H and He will be reduced by one unit

Total number of grid points                  ...    15131
Total number of batches                      ...      123
Average number of points per batch           ...      123
Average number of grid points per atom       ...     1513
UseSFitting                                  ... on

GRIDX 3
-------
General Integration Accuracy     IntAcc      ... 4.338
Radial Grid Type                 RadialGrid  ... OptM3 with GC (2021)
Angular Grid (max. ang.)         AngularGrid ... 3 (Lebedev-194)
Angular grid pruning method      GridPruning ... 4 (adaptive)
Weight generation scheme         WeightScheme... mBecke (2022)
Basis function cutoff            BFCut       ... 1.0000e-11
Integration weight cutoff        WCut        ... 1.0000e-14
Partially contracted basis set               ... on
Rotationally invariant grid construction     ... off
Angular grids for H and He will be reduced by one unit

Total number of grid points                  ...    33484
Total number of batches                      ...      265
Average number of points per batch           ...      126
Average number of grid points per atom       ...     3348
UseSFitting                                  ... on
Initializing property integral containers    ... done (  0.0 sec)

SHARK setup successfully completed in   0.8 seconds

Maximum memory used throughout the entire STARTUP-calculation: 17.7 MB
[psid04:23881] 19 more processes have sent help message help-mpi-btl-openib.txt / ib port not selected
[psid04:23881] Set MCA parameter "orte_base_help_aggregate" to 0 to see all help / error messages
[psid04:23881] 19 more processes have sent help message help-mpi-btl-openib.txt / error in device init
--------------------------------------------------------------------------
By default, for Open MPI 4.0 and later, infiniband ports on a device
are not used by default.  The intent is to use UCX for these devices.
You can override this policy by setting the btl_openib_allow_ib MCA parameter
to true.

  Local host:              psid04
  Local adapter:           mlx5_0
  Local port:              1

--------------------------------------------------------------------------
--------------------------------------------------------------------------
WARNING: There was an error initializing an OpenFabrics device.

  Local host:   psid04
  Local device: mlx5_0
--------------------------------------------------------------------------


           ************************************************************
           *        Program running with 20 parallel MPI-processes    *
           *              working on a common directory               *
           ************************************************************
-------------------------------------------------------------------------------
                                 ORCA GUESS
                   Start orbitals & Density for SCF / CASSCF
-------------------------------------------------------------------------------

------------
SCF SETTINGS
------------
Hamiltonian:
 Density Functional     Method          .... DFT(GTOs)
 Exchange Functional    Exchange        .... B88
   X-Alpha parameter    XAlpha          ....  0.666667
   Becke's b parameter  XBeta           ....  0.004200
 Correlation Functional Correlation     .... LYP
 LDA part of GGA corr.  LDAOpt          .... VWN-5
 Gradients option       PostSCFGGA      .... off
 Hybrid DFT is turned on
   Fraction HF Exchange ScalHFX         ....  0.200000
   Scaling of DF-GGA-X  ScalDFX         ....  0.720000
   Scaling of DF-GGA-C  ScalDFC         ....  0.810000
   Scaling of DF-LDA-C  ScalLDAC        ....  1.000000
   Perturbative correction              ....  0.000000
   NL short-range parameter             ....  4.800000
 RI-approximation to the Coulomb term is turned on
   Number of AuxJ basis functions       .... 376
   RIJ-COSX (HFX calculated with COS-X)).... on


General Settings:
 Integral files         IntName         .... FEC
 Hartree-Fock type      HFTyp           .... RHF
 Total Charge           Charge          ....    0
 Multiplicity           Mult            ....    1
 Number of Electrons    NEL             ....   54
 Basis Dimension        Dim             ....  235
 Nuclear Repulsion      ENuc            ....    324.1725991225 Eh

Convergence Acceleration:
 AO-DIIS                CNVDIIS         .... on
   Start iteration      DIISMaxIt       ....    12
   Startup error        DIISStart       ....  0.200000
   # of expansion vecs  DIISMaxEq       ....     5
   Bias factor          DIISBfac        ....   1.050
   Max. coefficient     DIISMaxC        ....  10.000
 MO-DIIS                CNVKDIIS        .... off
 Trust-Rad. Augm. Hess. CNVTRAH         .... auto
   Auto Start mean grad. ratio tolernc. ....  1.125000
   Auto Start start iteration           ....    50
   Auto Start num. interpolation iter.  ....    10
   Max. Number of Micro iterations      ....    24
   Max. Number of Macro iterations      .... Maxiter - #DIIS iter
   Number of Davidson start vectors     ....     2
   Converg. threshold    (grad. norm)   ....   1.000e-05
   Grad. Scal. Fac. for Micro threshold ....   0.100
   Minimum threshold for Micro iter.    ....   1.000e-02
   NR start threshold (gradient norm)   ....   1.000e-04
   Initial trust radius                 ....   0.400
   Minimum AH scaling param. (alpha)    ....   1.000
   Maximum AH scaling param. (alpha)    .... 1000.000
   Quad. conv. algorithm                .... NR
   White noise on init. David. guess    .... on
   Maximum white noise                  ....   0.010
   Pseudo random numbers                .... off
   Inactive MOs                         .... canonical
   Orbital update algorithm             .... Taylor
   Preconditioner                       .... Diag
   Full preconditioner red. dimension   ....   250
 SOSCF                  CNVSOSCF        .... on
   Start iteration      SOSCFMaxIt      ....   150
   Startup grad/error   SOSCFStart      ....  0.003300
   Hessian update       SOSCFHessUp     .... L-BFGS
 Level Shifting         CNVShift        .... on
   Level shift para.    LevelShift      ....    0.2500
   Turn off err/grad.   ShiftErr        ....    0.0010
 Zerner damping         CNVZerner       .... off
 Static damping         CNVDamp         .... on
   Fraction old density DampFac         ....    0.7000
   Max. Damping (<1)    DampMax         ....    0.9800
   Min. Damping (>=0)   DampMin         ....    0.0000
   Turn off err/grad.   DampErr         ....    0.1000

SCF Procedure:
 Maximum # iterations   MaxIter         ....   125
 SCF integral mode      SCFMode         .... Direct
   Integral package                     .... SHARK and LIBINT hybrid scheme
 Reset frequency        DirectResetFreq ....    20
 Integral Threshold     Thresh          ....  2.500e-11 Eh
 Primitive CutOff       TCut            ....  2.500e-12 Eh

Convergence Tolerance:
 Convergence Check Mode ConvCheckMode   .... Total+1el-Energy
 Convergence forced     ConvForced      .... 0
 Energy Change          TolE            ....  1.000e-08 Eh
 1-El. energy change                    ....  1.000e-05 Eh
 Orbital Gradient       TolG            ....  1.000e-05
 Orbital Rotation angle TolX            ....  1.000e-05
 DIIS Error             TolErr          ....  5.000e-07

------------------------------
INITIAL GUESS: MODEL POTENTIAL
------------------------------
Loading Hartree-Fock densities                     ... done
Calculating cut-offs                               ... done
Initializing the effective Hamiltonian             ... done
Setting up the integral package (SHARK)            ... done
Starting the Coulomb interaction                   ... done (   0.0 sec)
Making the grid                                    ... done (   0.1 sec)
Mapping shells                                     ... done
Starting the XC term evaluation                    ... done (   0.0 sec)
  promolecular density results
     # of electrons  =     53.998991021
     EX              =    -50.988293538
     EC              =     -1.942355011
     EX+EC           =    -52.930648549
Transforming the Hamiltonian                       ... done (   0.0 sec)
Diagonalizing the Hamiltonian                      ... done (   0.0 sec)
Back transforming the eigenvectors                 ... done (   0.0 sec)
Now organizing SCF variables                       ... done
                      ------------------
                      INITIAL GUESS DONE (   0.2 sec)
                      ------------------
             **** ENERGY FILE WAS UPDATED (FEC.en.tmp) ****
Finished Guess after   0.7 sec
Maximum memory used throughout the entire GUESS-calculation: 12.6 MB
[psid04:23959] 19 more processes have sent help message help-mpi-btl-openib.txt / ib port not selected
[psid04:23959] Set MCA parameter "orte_base_help_aggregate" to 0 to see all help / error messages
[psid04:23959] 19 more processes have sent help message help-mpi-btl-openib.txt / error in device init
--------------------------------------------------------------------------
By default, for Open MPI 4.0 and later, infiniband ports on a device
are not used by default.  The intent is to use UCX for these devices.
You can override this policy by setting the btl_openib_allow_ib MCA parameter
to true.

  Local host:              psid04
  Local adapter:           mlx5_0
  Local port:              1

--------------------------------------------------------------------------
--------------------------------------------------------------------------
WARNING: There was an error initializing an OpenFabrics device.

  Local host:   psid04
  Local device: mlx5_0
--------------------------------------------------------------------------


           ************************************************************
           *        Program running with 20 parallel MPI-processes    *
           *              working on a common directory               *
           ************************************************************

-------------------------------------------------------------------------------------------
                                      ORCA LEAN-SCF
                              memory conserving SCF solver
-------------------------------------------------------------------------------------------

----------------------------------------D-I-I-S--------------------------------------------
Iteration    Energy (Eh)           Delta-E    RMSDP     MaxDP     DIISErr   Damp  Time(sec)
-------------------------------------------------------------------------------------------
               ***  Starting incremental Fock matrix formation  ***
    1    -441.4110439725383230     0.00e+00  1.67e-03  6.58e-02  3.15e-01  0.700   0.5
    2    -441.5186269366286069    -1.08e-01  9.88e-04  3.45e-02  1.06e-01  0.700   0.4
                               ***Turning on AO-DIIS***
    3    -441.5503468597896699    -3.17e-02  3.60e-04  7.84e-03  2.83e-02  0.700   0.4
    4    -441.5732527939231886    -2.29e-02  5.41e-04  1.42e-02  1.42e-02  0.000   0.3
    5    -441.6267423069774622    -5.35e-02  1.73e-04  3.81e-03  5.21e-03  0.000   0.4
                              *** Initializing SOSCF ***
---------------------------------------S-O-S-C-F--------------------------------------
Iteration    Energy (Eh)           Delta-E    RMSDP     MaxDP     MaxGrad    Time(sec)
--------------------------------------------------------------------------------------
    6    -441.6268958464199841    -1.54e-04  5.52e-05  1.06e-03  2.71e-03     0.4
               *** Restarting incremental Fock matrix formation ***
    7    -441.6269014368939452    -5.59e-06  3.63e-05  8.66e-04  3.75e-04     0.5
    8    -441.6268955746526217     5.86e-06  1.80e-05  5.47e-04  8.39e-04     0.4
    9    -441.6269051768878171    -9.60e-06  7.25e-06  2.77e-04  1.23e-04     0.4
   10    -441.6269046867057568     4.90e-07  4.69e-06  1.76e-04  1.81e-04     0.4
   11    -441.6269053616631481    -6.75e-07  3.57e-07  9.54e-06  2.70e-06     0.4
   12    -441.6269053656802726    -4.02e-09  1.75e-07  5.41e-06  3.07e-06     0.3
                 **** Energy Check signals convergence ****

               *****************************************************
               *                     SUCCESS                       *
               *           SCF CONVERGED AFTER  12 CYCLES          *
               *****************************************************

Recomputing exchange energy using gridx3       ...[psid04:24025] 19 more processes have sent help message help-mpi-btl-openib.txt / ib port not selected
[psid04:24025] Set MCA parameter "orte_base_help_aggregate" to 0 to see all help / error messages
[psid04:24025] 19 more processes have sent help message help-mpi-btl-openib.txt / error in device init
 done (    0.500 sec)
Old exchange energy                            :    -10.273079397 Eh
New exchange energy                            :    -10.273086768 Eh
Exchange energy change after final integration :     -0.000007371 Eh
Total energy after final integration           :   -441.626912737 Eh
             **** ENERGY FILE WAS UPDATED (FEC.en.tmp) ****

----------------
TOTAL SCF ENERGY
----------------

Total Energy       :       -441.62691273658817 Eh          -12017.27924 eV

Components:
Nuclear Repulsion  :        324.17259912251484 Eh            8821.18488 eV
Electronic Energy  :       -765.79950448819523 Eh          -20838.46392 eV
One Electron Energy:      -1249.00022223309043 Eh          -33987.02391 eV
Two Electron Energy:        483.20071774489526 Eh           13148.55999 eV

Virial components:
Potential Energy   :       -881.51645117207465 Eh          -23987.28213 eV
Kinetic Energy     :        439.88953843548649 Eh           11970.00288 eV
Virial Ratio       :          2.00394956949256

DFT components:
N(Alpha)           :       26.999988236230 electrons
N(Beta)            :       26.999988236230 electrons
N(Total)           :       53.999976472461 electrons
E(X)               :      -40.933239120324 Eh       
E(C)               :       -2.279555428015 Eh       
E(XC)              :      -43.212794548339 Eh       

---------------
SCF CONVERGENCE
---------------

  Last Energy change         ...    4.0171e-09  Tolerance :   1.0000e-08
  Last MAX-Density change    ...    5.4082e-06  Tolerance :   1.0000e-07
  Last RMS-Density change    ...    1.7517e-07  Tolerance :   5.0000e-09
  Last DIIS Error            ...    2.7141e-03  Tolerance :   5.0000e-07
  Last Orbital Gradient      ...    3.0659e-06  Tolerance :   1.0000e-05
  Last Orbital Rotation      ...    2.2768e-06  Tolerance :   1.0000e-05


----------------
ORBITAL ENERGIES
----------------

  NO   OCC          E(Eh)            E(eV) 
   0   2.0000     -24.711056      -672.4220 
   1   2.0000     -19.215334      -522.8758 
   2   2.0000     -19.207236      -522.6555 
   3   2.0000     -19.130513      -520.5677 
   4   2.0000     -10.368598      -282.1439 
   5   2.0000     -10.346255      -281.5359 
   6   2.0000     -10.271528      -279.5025 
   7   2.0000      -1.260549       -34.3013 
   8   2.0000      -1.176848       -32.0237 
   9   2.0000      -1.075926       -29.2774 
  10   2.0000      -1.044096       -28.4113 
  11   2.0000      -0.806725       -21.9521 
  12   2.0000      -0.702703       -19.1215 
  13   2.0000      -0.647335       -17.6149 
  14   2.0000      -0.592903       -16.1337 
  15   2.0000      -0.578905       -15.7528 
  16   2.0000      -0.534391       -14.5415 
  17   2.0000      -0.518333       -14.1046 
  18   2.0000      -0.487105       -13.2548 
  19   2.0000      -0.461075       -12.5465 
  20   2.0000      -0.444557       -12.0970 
  21   2.0000      -0.428471       -11.6593 
  22   2.0000      -0.410941       -11.1823 
  23   2.0000      -0.385787       -10.4978 
  24   2.0000      -0.364579        -9.9207 
  25   2.0000      -0.327833        -8.9208 
  26   2.0000      -0.311697        -8.4817 
  27   0.0000      -0.001297        -0.0353 
  28   0.0000       0.023622         0.6428 
  29   0.0000       0.032570         0.8863 
  30   0.0000       0.058482         1.5914 
  31   0.0000       0.075398         2.0517 
  32   0.0000       0.087190         2.3726 
  33   0.0000       0.106522         2.8986 
  34   0.0000       0.129745         3.5305 
  35   0.0000       0.151037         4.1099 
  36   0.0000       0.178932         4.8690 
  37   0.0000       0.209399         5.6980 
*Only the first 10 virtual orbitals were printed.

                    ********************************
                    * MULLIKEN POPULATION ANALYSIS *
                    ********************************

-----------------------
MULLIKEN ATOMIC CHARGES
-----------------------
   0 F :   -0.201688
   1 O :   -0.226769
   2 O :   -0.238195
   3 O :   -0.291776
   4 C :    0.246966
   5 C :   -0.013325
   6 C :    0.382075
   7 H :    0.098933
   8 H :    0.110918
   9 H :    0.132861
Sum of atomic charges:    0.0000000

--------------------------------
MULLIKEN REDUCED ORBITAL CHARGES
--------------------------------
  0 F s       :     3.914008  s :     3.914008
      pz      :     1.572943  p :     5.271458
      px      :     1.834993
      py      :     1.863522
      dz2     :     0.005055  d :     0.015556
      dxz     :     0.004551
      dyz     :     0.003615
      dx2y2   :     0.001116
      dxy     :     0.001219
      f0      :     0.000139  f :     0.000666
      f+1     :     0.000185
      f-1     :     0.000130
      f+2     :     0.000079
      f-2     :     0.000106
      f+3     :     0.000015
      f-3     :     0.000013

  1 O s       :     3.777731  s :     3.777731
      pz      :     1.651841  p :     4.406567
      px      :     1.197065
      py      :     1.557661
      dz2     :     0.005295  d :     0.040450
      dxz     :     0.006502
      dyz     :     0.006512
      dx2y2   :     0.007469
      dxy     :     0.014673
      f0      :     0.000249  f :     0.002021
      f+1     :     0.000325
      f-1     :     0.000193
      f+2     :     0.000184
      f-2     :     0.000322
      f+3     :     0.000372
      f-3     :     0.000376

  2 O s       :     3.785657  s :     3.785657
      pz      :     1.646482  p :     4.409209
      px      :     1.334517
      py      :     1.428210
      dz2     :     0.005237  d :     0.041310
      dxz     :     0.007877
      dyz     :     0.006927
      dx2y2   :     0.012834
      dxy     :     0.008435
      f0      :     0.000259  f :     0.002019
      f+1     :     0.000247
      f-1     :     0.000209
      f+2     :     0.000325
      f-2     :     0.000215
      f+3     :     0.000373
      f-3     :     0.000391

  3 O s       :     3.813485  s :     3.813485
      pz      :     1.454550  p :     4.446543
      px      :     1.312236
      py      :     1.679757
      dz2     :     0.003203  d :     0.029925
      dxz     :     0.009500
      dyz     :     0.001173
      dx2y2   :     0.008327
      dxy     :     0.007722
      f0      :     0.000172  f :     0.001822
      f+1     :     0.000239
      f-1     :     0.000037
      f+2     :     0.000305
      f-2     :     0.000153
      f+3     :     0.000472
      f-3     :     0.000443

  4 C s       :     3.173518  s :     3.173518
      pz      :     0.751309  p :     2.347841
      px      :     0.741715
      py      :     0.854816
      dz2     :     0.036595  d :     0.209818
      dxz     :     0.059429
      dyz     :     0.040827
      dx2y2   :     0.035524
      dxy     :     0.037443
      f0      :     0.004477  f :     0.021857
      f+1     :     0.003005
      f-1     :     0.002714
      f+2     :     0.003287
      f-2     :     0.002795
      f+3     :     0.003129
      f-3     :     0.002451

  5 C s       :     3.226311  s :     3.226311
      pz      :     0.980249  p :     2.672059
      px      :     0.743789
      py      :     0.948021
      dz2     :     0.017990  d :     0.104626
      dxz     :     0.025200
      dyz     :     0.013405
      dx2y2   :     0.021411
      dxy     :     0.026619
      f0      :     0.000855  f :     0.010329
      f+1     :     0.001955
      f-1     :     0.000820
      f+2     :     0.001574
      f-2     :     0.001219
      f+3     :     0.001867
      f-3     :     0.002039

  6 C s       :     3.021601  s :     3.021601
      pz      :     0.788148  p :     2.278770
      px      :     0.750082
      py      :     0.740541
      dz2     :     0.027699  d :     0.287063
      dxz     :     0.069090
      dyz     :     0.035215
      dx2y2   :     0.067746
      dxy     :     0.087313
      f0      :     0.002412  f :     0.030492
      f+1     :     0.003361
      f-1     :     0.002363
      f+2     :     0.004061
      f-2     :     0.003508
      f+3     :     0.007079
      f-3     :     0.007707

  7 H s       :     0.880663  s :     0.880663
      pz      :     0.009294  p :     0.020404
      px      :     0.007325
      py      :     0.003786

  8 H s       :     0.867938  s :     0.867938
      pz      :     0.011729  p :     0.021144
      px      :     0.002954
      py      :     0.006461

  9 H s       :     0.846157  s :     0.846157
      pz      :     0.006898  p :     0.020982
      px      :     0.007075
      py      :     0.007009



                     *******************************
                     * LOEWDIN POPULATION ANALYSIS *
                     *******************************

----------------------
LOEWDIN ATOMIC CHARGES
----------------------
   0 F :    0.154418
   1 O :    0.283948
   2 O :    0.261133
   3 O :    0.099089
   4 C :   -0.414416
   5 C :   -0.258688
   6 C :   -0.541892
   7 H :    0.137001
   8 H :    0.136589
   9 H :    0.142817

-------------------------------
LOEWDIN REDUCED ORBITAL CHARGES
-------------------------------
  0 F s       :     3.605845  s :     3.605845
      pz      :     1.621613  p :     5.207594
      px      :     1.782741
      py      :     1.803241
      dz2     :     0.010721  d :     0.030662
      dxz     :     0.008270
      dyz     :     0.007293
      dx2y2   :     0.001924
      dxy     :     0.002453
      f0      :     0.000388  f :     0.001481
      f+1     :     0.000345
      f-1     :     0.000254
      f+2     :     0.000188
      f-2     :     0.000241
      f+3     :     0.000041
      f-3     :     0.000024

  1 O s       :     3.278348  s :     3.278348
      pz      :     1.552686  p :     4.328054
      px      :     1.250220
      py      :     1.525148
      dz2     :     0.011845  d :     0.102233
      dxz     :     0.019387
      dyz     :     0.009718
      dx2y2   :     0.022745
      dxy     :     0.038538
      f0      :     0.000560  f :     0.007416
      f+1     :     0.000798
      f-1     :     0.000429
      f+2     :     0.000654
      f-2     :     0.001508
      f+3     :     0.001951
      f-3     :     0.001517

  2 O s       :     3.279150  s :     3.279150
      pz      :     1.565202  p :     4.347275
      px      :     1.343280
      py      :     1.438793
      dz2     :     0.013071  d :     0.105026
      dxz     :     0.019310
      dyz     :     0.012611
      dx2y2   :     0.033140
      dxy     :     0.026894
      f0      :     0.000473  f :     0.007415
      f+1     :     0.000904
      f-1     :     0.000528
      f+2     :     0.001401
      f-2     :     0.000858
      f+3     :     0.001419
      f-3     :     0.001832

  3 O s       :     3.425868  s :     3.425868
      pz      :     1.375615  p :     4.406425
      px      :     1.456274
      py      :     1.574536
      dz2     :     0.008405  d :     0.062807
      dxz     :     0.014429
      dyz     :     0.001713
      dx2y2   :     0.022240
      dxy     :     0.016020
      f0      :     0.000505  f :     0.005812
      f+1     :     0.000959
      f-1     :     0.000125
      f+2     :     0.000737
      f-2     :     0.000393
      f+3     :     0.001544
      f-3     :     0.001549

  4 C s       :     2.780355  s :     2.780355
      pz      :     0.850749  p :     2.682216
      px      :     0.845879
      py      :     0.985589
      dz2     :     0.166467  d :     0.804931
      dxz     :     0.209078
      dyz     :     0.129909
      dx2y2   :     0.152264
      dxy     :     0.147212
      f0      :     0.026437  f :     0.146914
      f+1     :     0.020890
      f-1     :     0.020721
      f+2     :     0.018995
      f-2     :     0.020593
      f+3     :     0.021077
      f-3     :     0.018202

  5 C s       :     2.806888  s :     2.806888
      pz      :     1.011025  p :     2.894464
      px      :     0.840316
      py      :     1.043124
      dz2     :     0.082523  d :     0.484611
      dxz     :     0.104833
      dyz     :     0.079805
      dx2y2   :     0.109001
      dxy     :     0.108450
      f0      :     0.006096  f :     0.072724
      f+1     :     0.012588
      f-1     :     0.004500
      f+2     :     0.012249
      f-2     :     0.007789
      f+3     :     0.013775
      f-3     :     0.015729

  6 C s       :     2.750166  s :     2.750166
      pz      :     0.796441  p :     2.580646
      px      :     0.932282
      py      :     0.851923
      dz2     :     0.110416  d :     1.031116
      dxz     :     0.203403
      dyz     :     0.129739
      dx2y2   :     0.270903
      dxy     :     0.316655
      f0      :     0.012800  f :     0.179964
      f+1     :     0.017418
      f-1     :     0.013335
      f+2     :     0.026326
      f-2     :     0.021193
      f+3     :     0.042835
      f-3     :     0.046058

  7 H s       :     0.806619  s :     0.806619
      pz      :     0.025731  p :     0.056379
      px      :     0.019564
      py      :     0.011084

  8 H s       :     0.804699  s :     0.804699
      pz      :     0.032416  p :     0.058712
      px      :     0.009224
      py      :     0.017072

  9 H s       :     0.798377  s :     0.798377
      pz      :     0.020883  p :     0.058806
      px      :     0.019529
      py      :     0.018394



                      *****************************
                      * MAYER POPULATION ANALYSIS *
                      *****************************

  NA   - Mulliken gross atomic population
  ZA   - Total nuclear charge
  QA   - Mulliken gross atomic charge
  VA   - Mayer's total valence
  BVA  - Mayer's bonded valence
  FA   - Mayer's free valence

  ATOM       NA         ZA         QA         VA         BVA        FA
  0 F      9.2017     9.0000    -0.2017     1.0705     1.0705    -0.0000
  1 O      8.2268     8.0000    -0.2268     2.1453     2.1453    -0.0000
  2 O      8.2382     8.0000    -0.2382     2.1307     2.1307     0.0000
  3 O      8.2918     8.0000    -0.2918     2.2156     2.2156    -0.0000
  4 C      5.7530     6.0000     0.2470     4.0816     4.0816    -0.0000
  5 C      6.0133     6.0000    -0.0133     3.8455     3.8455     0.0000
  6 C      5.6179     6.0000     0.3821     4.4604     4.4604     0.0000
  7 H      0.9011     1.0000     0.0989     0.9644     0.9644    -0.0000
  8 H      0.8891     1.0000     0.1109     0.9621     0.9621     0.0000
  9 H      0.8671     1.0000     0.1329     0.9654     0.9654     0.0000

  Mayer bond orders larger than 0.100000
B(  0-F ,  4-C ) :   1.0550 B(  1-O ,  4-C ) :   1.0123 B(  1-O ,  6-C ) :   1.1020 
B(  2-O ,  5-C ) :   0.9395 B(  2-O ,  6-C ) :   1.1413 B(  3-O ,  6-C ) :   2.1364 
B(  4-C ,  5-C ) :   0.9862 B(  4-C ,  7-H ) :   0.9695 B(  5-C ,  8-H ) :   0.9477 
B(  5-C ,  9-H ) :   0.9549 

-------
TIMINGS
-------

Total SCF time: 0 days 0 hours 0 min 5 sec 

Total time                  ....       5.920 sec
Sum of individual times     ....       5.811 sec  ( 98.2%)

SCF preparation             ....       0.596 sec  ( 10.1%)
Fock matrix formation       ....       4.595 sec  ( 77.6%)
  Startup                   ....       0.063 sec  (  1.4% of F)
  Split-RI-J                ....       0.434 sec  (  9.4% of F)
  Chain of spheres X        ....       2.897 sec  ( 63.1% of F)
  XC integration            ....       1.014 sec  ( 22.1% of F)
    Basis function eval.    ....       0.144 sec  ( 14.2% of XC)
    Density eval.           ....       0.102 sec  ( 10.1% of XC)
    XC-Functional eval.     ....       0.030 sec  (  3.0% of XC)
    XC-Potential eval.      ....       0.204 sec  ( 20.2% of XC)
Diagonalization             ....       0.000 sec  (  0.0%)
Density matrix formation    ....       0.154 sec  (  2.6%)
Total Energy calculation    ....       0.054 sec  (  0.9%)
Population analysis         ....       0.025 sec  (  0.4%)
Orbital Transformation      ....       0.039 sec  (  0.7%)
Orbital Orthonormalization  ....       0.000 sec  (  0.0%)
DIIS solution               ....       0.222 sec  (  3.7%)
SOSCF solution              ....       0.126 sec  (  2.1%)
Finished LeanSCF after   5.9 sec

Maximum memory used throughout the entire LEANSCF-calculation: 20.1 MB

-------------------------   --------------------
FINAL SINGLE POINT ENERGY      -441.626912736588
-------------------------   --------------------

--------------------------------------------------------------------------
By default, for Open MPI 4.0 and later, infiniband ports on a device
are not used by default.  The intent is to use UCX for these devices.
You can override this policy by setting the btl_openib_allow_ib MCA parameter
to true.

  Local host:              psid04
  Local adapter:           mlx5_0
  Local port:              1

--------------------------------------------------------------------------
--------------------------------------------------------------------------
WARNING: There was an error initializing an OpenFabrics device.

  Local host:   psid04
  Local device: mlx5_0
--------------------------------------------------------------------------


           ************************************************************
           *        Program running with 20 parallel MPI-processes    *
           *              working on a common directory               *
           ************************************************************
------------------------------------------------------------------------------
                         ORCA SCF GRADIENT CALCULATION
------------------------------------------------------------------------------

Nuc. rep. gradient        (SHARK) ... done (  0.0 sec)
HCore & Overlap gradient  (SHARK) ... done (  0.0 sec)
Split-RIJ-J gradient      (SHARK) ... done (  0.2 sec)
COSX-gradient                     ... done (  1.8 sec)
XC gradient                       ... done (  0.3 sec)

------------------
CARTESIAN GRADIENT
------------------

   1   F   :    0.009426203   -0.005953194    0.009472030
   2   O   :    0.004996846    0.008900958    0.000324982
   3   O   :   -0.009724334   -0.013066085   -0.002666291
   4   O   :    0.056128488    0.014630423   -0.010772985
   5   C   :    0.002217817   -0.005261445   -0.012226678
   6   C   :    0.000557573    0.017417711    0.000603744
   7   C   :   -0.059777587   -0.007148149    0.015075499
   8   H   :   -0.004711913   -0.005741183    0.001070777
   9   H   :    0.003533590   -0.001497046   -0.000073978
  10   H   :   -0.002646683   -0.002281989   -0.000807101

Difference to translation invariance:
           :    0.0000000000    0.0000000000   -0.0000000000

Difference to rotation invariance:
           :   -0.0001397982    0.0002046948    0.0002302960

Norm of the Cartesian gradient     ...    0.0921574780
RMS gradient                       ...    0.0168255765
MAX gradient                       ...    0.0597775871

-------
TIMINGS
-------

Total SCF gradient time     ....        2.318 sec

Densities                   ....       0.001 sec  (  0.1%)
One electron gradient       ....       0.022 sec  (  1.0%)
RI-J Coulomb gradient       ....       0.219 sec  (  9.5%)
COSX gradient               ....       1.777 sec  ( 76.7%)
XC gradient                 ....       0.297 sec  ( 12.8%)

Maximum memory used throughout the entire SCFGRAD-calculation: 25.7 MB
[psid04:24104] 19 more processes have sent help message help-mpi-btl-openib.txt / ib port not selected
[psid04:24104] Set MCA parameter "orte_base_help_aggregate" to 0 to see all help / error messages
[psid04:24104] 19 more processes have sent help message help-mpi-btl-openib.txt / error in device init
------------------------------------------------------------------------------
                         ORCA GEOMETRY RELAXATION STEP
------------------------------------------------------------------------------

Reading the OPT-File                    .... done
Getting information on internals        .... done
Copying old internal coords+grads       .... done
Making the new internal coordinates     .... (2022 redundants) done
Validating the new internal coordinates .... (2022 redundants) done
Calculating the B-matrix                .... done
Calculating the G,G- and P matrices     .... done
Transforming gradient to internals      .... done
Projecting the internal gradient        .... done
Number of atoms                         ....  10
Number of internal coordinates          ....  43
Current Energy                          ....  -441.626912737 Eh
Current gradient norm                   ....     0.092157478 Eh/bohr
Maximum allowed component of the step   ....  0.300
Current trust radius                    ....  0.300
Evaluating the initial hessian          ....  (Almloef) done
Projecting the Hessian                  .... done
Forming the augmented Hessian           .... done
Diagonalizing the augmented Hessian     .... done
Last element of RFO vector              ....  0.983138714
Lowest eigenvalues of augmented Hessian:
 -0.006154013  0.020765874  0.024559788  0.026915477  0.113709686
Length of the computed step             ....  0.185997497
The final length of the internal step   ....  0.185997497
Converting the step to Cartesian space:
 Initial RMS(Int)=    0.0283643523
Transforming coordinates:
 Iter   0:  RMS(Cart)=    0.0331754356 RMS(Int)=    0.0284005840
done
Storing new coordinates                 .... done

                                .--------------------.
          ----------------------|Geometry convergence|-------------------------
          Item                value                   Tolerance       Converged
          ---------------------------------------------------------------------
          RMS gradient        0.0100641208            0.0000300000      NO
          MAX gradient        0.0589825964            0.0001000000      NO
          RMS step            0.0283643523            0.0006000000      NO
          MAX step            0.0739391842            0.0010000000      NO
          ........................................................
          Max(Bonds)      0.0299      Max(Angles)    1.51
          Max(Dihed)        4.24      Max(Improp)    0.00
          ---------------------------------------------------------------------

The optimization has not yet converged - more geometry cycles are needed


    ---------------------------------------------------------------------------
                         Redundant Internal Coordinates
                            (Angstroem and degrees)

        Definition                    Value    dE/dq     Step     New-Value
    ----------------------------------------------------------------------------
     1. B(C   4,O   1)                1.4153  0.003737 -0.0031    1.4122   
     2. B(C   4,F   0)                1.3570 -0.013846  0.0124    1.3694   
     3. B(C   5,O   2)                1.4230 -0.008813  0.0100    1.4330   
     4. B(C   5,C   4)                1.4933 -0.012105  0.0160    1.5093   
     5. B(C   6,O   2)                1.3683  0.009924 -0.0097    1.3586   
     6. B(C   6,O   3)                1.2218  0.058983 -0.0299    1.1919   
     7. B(C   6,O   1)                1.3678 -0.001760  0.0004    1.3682   
     8. B(H   7,C   4)                1.0929  0.002609 -0.0038    1.0891   
     9. B(H   8,C   5)                1.0945  0.000908 -0.0013    1.0932   
    10. B(H   9,C   5)                1.0929  0.003312 -0.0048    1.0881   
    11. A(C   4,O   1,C   6)          106.89 -0.008595    1.51    108.40   
    12. A(C   5,O   2,C   6)          107.37 -0.003407    0.79    108.16   
    13. A(F   0,C   4,O   1)          107.68 -0.001895    0.65    108.32   
    14. A(F   0,C   4,H   7)          109.13  0.003704   -0.54    108.59   
    15. A(O   1,C   4,C   5)          103.65  0.006789   -0.72    102.94   
    16. A(O   1,C   4,H   7)          112.14  0.001906   -1.38    110.76   
    17. A(C   5,C   4,H   7)          113.97 -0.006348    1.17    115.14   
    18. A(F   0,C   4,C   5)          110.02 -0.004108    0.84    110.86   
    19. A(C   4,C   5,H   8)          112.66  0.000759   -0.56    112.10   
    20. A(O   2,C   5,H   8)          108.05 -0.000792    0.51    108.56   
    21. A(C   4,C   5,H   9)          112.91 -0.000740    0.03    112.94   
    22. A(O   2,C   5,C   4)          102.56  0.002421    0.08    102.64   
    23. A(H   8,C   5,H   9)          110.07 -0.002177    0.21    110.29   
    24. A(O   2,C   5,H   9)          110.24  0.000870   -0.27    109.98   
    25. A(O   1,C   6,O   2)          110.66  0.002921   -0.45    110.20   
    26. A(O   2,C   6,O   3)          124.66 -0.002882    0.40    125.05   
    27. A(O   1,C   6,O   3)          124.69 -0.000037    0.05    124.74   
    28. D(F   0,C   4,O   1,C   6)    -91.71  0.001531   -2.03    -93.74   
    29. D(C   5,C   4,O   1,C   6)     24.85 -0.000702   -1.14     23.72   
    30. D(H   7,C   4,O   1,C   6)    148.23 -0.002960   -0.95    147.28   
    31. D(H   8,C   5,C   4,H   7)    -35.82 -0.004584    4.24    -31.58   
    32. D(H   9,C   5,O   2,C   6)    144.38  0.000511   -2.04    142.34   
    33. D(O   2,C   5,C   4,F   0)     85.34 -0.002511    3.06     88.40   
    34. D(H   8,C   5,O   2,C   6)    -95.30 -0.002118   -1.62    -96.92   
    35. D(O   2,C   5,C   4,H   7)   -151.73 -0.005383    3.84   -147.89   
    36. D(H   8,C   5,C   4,F   0)   -158.75 -0.001712    3.45   -155.30   
    37. D(H   8,C   5,C   4,O   1)     86.35 -0.001229    2.71     89.06   
    38. D(O   2,C   5,C   4,O   1)    -29.56 -0.002028    2.31    -27.25   
    39. D(C   4,C   5,O   2,C   6)     23.89 -0.000394   -1.99     21.90   
    40. D(O   1,C   6,O   2,C   5)     -9.32  0.000464    1.34     -7.99   
    41. D(O   3,C   6,O   1,C   4)    169.65  0.000949    0.73    170.39   
    42. D(O   2,C   6,O   1,C   4)    -10.55  0.001675   -0.29    -10.84   
    43. D(O   3,C   6,O   2,C   5)    170.48  0.001196    0.31    170.79   
    ----------------------------------------------------------------------------

Geometry step timings:
Preparation and reading OPT file:      0.001 s (10.995 %)
Internal coordinates            :      0.000 s ( 0.512 %)
B/P matrices and projection     :      0.000 s ( 6.047 %)
Hessian update/contruction      :      0.002 s (43.299 %)
Making the step                 :      0.000 s ( 5.327 %)
Converting the step to Cartesian:      0.000 s ( 1.270 %)
Storing new data                :      0.001 s (11.621 %)
Checking convergence            :      0.000 s ( 0.076 %)
Final printing                  :      0.001 s (20.645 %)
Total time                      :      0.005 s
--------------------------------------------------------------------------
By default, for Open MPI 4.0 and later, infiniband ports on a device
are not used by default.  The intent is to use UCX for these devices.
You can override this policy by setting the btl_openib_allow_ib MCA parameter
to true.

  Local host:              psid04
  Local adapter:           mlx5_0
  Local port:              1

--------------------------------------------------------------------------
--------------------------------------------------------------------------
WARNING: There was an error initializing an OpenFabrics device.

  Local host:   psid04
  Local device: mlx5_0
--------------------------------------------------------------------------
[psid04:24170] 19 more processes have sent help message help-mpi-btl-openib.txt / ib port not selected
[psid04:24170] Set MCA parameter "orte_base_help_aggregate" to 0 to see all help / error messages
[psid04:24170] 19 more processes have sent help message help-mpi-btl-openib.txt / error in device init

Time for energy+gradient        :     11.619 s
Time for complete geometry iter :     12.384 s

         *************************************************************
         *                GEOMETRY OPTIMIZATION CYCLE   2            *
         *************************************************************
---------------------------------
CARTESIAN COORDINATES (ANGSTROEM)
---------------------------------
  F     -1.781661    0.695044   -0.740855
  O      0.063897    0.892438    0.540307
  O      0.507204   -1.141843   -0.276046
  O      2.153208    0.411202   -0.204469
  C     -1.186929    0.249952    0.409527
  C     -0.807719   -1.206043    0.289936
  C      1.022982    0.086487   -0.009909
  H     -1.834859    0.491507    1.250913
  H     -0.743452   -1.695645    1.265258
  H     -1.469371   -1.764098   -0.369363

----------------------------
CARTESIAN COORDINATES (A.U.)
----------------------------
  NO LB      ZA    FRAG     MASS         X           Y           Z
   0 F     9.0000    0    18.998   -3.366852    1.313443   -1.400012
   1 O     8.0000    0    15.999    0.120748    1.686463    1.021033
   2 O     8.0000    0    15.999    0.958476   -2.157771   -0.521652
   3 O     8.0000    0    15.999    4.068974    0.777059   -0.386390
   4 C     6.0000    0    12.011   -2.242971    0.472341    0.773893
   5 C     6.0000    0    12.011   -1.526368   -2.279092    0.547900
   6 C     6.0000    0    12.011    1.933156    0.163436   -0.018725
   7 H     1.0000    0     1.008   -3.467381    0.928814    2.363882
   8 H     1.0000    0     1.008   -1.404921   -3.204305    2.390991
   9 H     1.0000    0     1.008   -2.776708   -3.333663   -0.697995

--------------------------------
INTERNAL COORDINATES (ANGSTROEM)
--------------------------------
 F      0   0   0     0.000000000000     0.00000000     0.00000000
 O      1   0   0     2.255310342167     0.00000000     0.00000000
 O      2   1   0     2.236347936980    82.83264994     0.00000000
 O      3   2   1     2.264156268688    60.56863326   135.05150125
 C      1   2   3     1.369375855698    36.46963118    72.69458923
 C      3   2   1     1.432996799254    73.42211082   306.53011798
 C      4   3   2     1.191933247334    29.41885225   359.19406804
 H      5   1   2     1.089078715097   108.57458603   120.35372662
 H      6   3   2     1.093202652053   108.57199894   258.29960210
 H      6   3   2     1.088064213329   109.97735258   137.55287954

---------------------------
INTERNAL COORDINATES (A.U.)
---------------------------
 F      0   0   0     0.000000000000     0.00000000     0.00000000
 O      1   0   0     4.261918893697     0.00000000     0.00000000
 O      2   1   0     4.226085141052    82.83264994     0.00000000
 O      3   2   1     4.278635272220    60.56863326   135.05150125
 C      1   2   3     2.587745341674    36.46963118    72.69458923
 C      3   2   1     2.707971501376    73.42211082   306.53011798
 C      4   3   2     2.252427407377    29.41885225   359.19406804
 H      5   1   2     2.058060509817   108.57458603   120.35372662
 H      6   3   2     2.065853621257   108.57199894   258.29960210
 H      6   3   2     2.056143379312   109.97735258   137.55287954

--------------------------------------------------------------------------
By default, for Open MPI 4.0 and later, infiniband ports on a device
are not used by default.  The intent is to use UCX for these devices.
You can override this policy by setting the btl_openib_allow_ib MCA parameter
to true.

  Local host:              psid04
  Local adapter:           mlx5_0
  Local port:              1

--------------------------------------------------------------------------
--------------------------------------------------------------------------
WARNING: There was an error initializing an OpenFabrics device.

  Local host:   psid04
  Local device: mlx5_0
--------------------------------------------------------------------------


           ************************************************************
           *        Program running with 20 parallel MPI-processes    *
           *              working on a common directory               *
           ************************************************************
------------------------------------------------------------------------------
                   ___                                                        
                  /   \      - P O W E R E D   B Y -                         
                 /     \                                                     
                 |  |  |   _    _      __       _____    __    __             
                 |  |  |  | |  | |    /  \     |  _  \  |  |  /  |          
                  \  \/   | |  | |   /    \    | | | |  |  | /  /          
                 / \  \   | |__| |  /  /\  \   | |_| |  |  |/  /          
                |  |  |   |  __  | /  /__\  \  |    /   |      \           
                |  |  |   | |  | | |   __   |  |    \   |  |\   \          
                \     /   | |  | | |  |  |  |  | |\  \  |  | \   \       
                 \___/    |_|  |_| |__|  |__|  |_| \__\ |__|  \__/        
                                                                              
                      - O R C A' S   B I G   F R I E N D -                    
                                      &                                       
                       - I N T E G R A L  F E E D E R -                       
                                                                              
 v1 FN, 2020, v2 2021, v3 2022-2024                                           
------------------------------------------------------------------------------


----------------------
SHARK INTEGRAL PACKAGE
----------------------

Number of atoms                             ...     10
Number of basis functions                   ...    235
Number of shells                            ...     89
Maximum angular momentum                    ...      3
Integral batch strategy                     ... SHARK/LIBINT Hybrid
RI-J (if used) integral strategy            ... SPLIT-RIJ (Revised 2003 algorithm where possible)
Printlevel                                  ...      1
Contraction scheme used                     ... SEGMENTED contraction
Prescreening option                         ... SCHWARTZ
   Thresh                                   ... 2.500e-11
   Tcut                                     ... 2.500e-12
   Tpresel                                  ... 2.500e-12 
Coulomb Range Separation                    ... NOT USED
Exchange Range Separation                   ... NOT USED
Multipole approximations                    ... NOT USED
Finite Nucleus Model                        ... NOT USED
CABS basis                                  ... NOT available
Auxiliary Coulomb fitting basis             ... AVAILABLE
   # of basis functions in Aux-J            ...    376
   # of shells in Aux-J                     ...    120
   Maximum angular momentum in Aux-J        ...      4
Auxiliary J/K fitting basis                 ... NOT available
Auxiliary Correlation fitting basis         ... NOT available
Auxiliary 'external' fitting basis          ... NOT available

Checking pre-screening integrals            ... done (  0.0 sec) Dimension = 89
Check shell pair data                       ... done (  0.0 sec)
Shell pair information
Shell pair cut-off parameter TPreSel        ...   2.5e-12
Total number of shell pairs                 ...      4005
Shell pairs after pre-screening             ...      3777
Total number of primitive shell pairs       ...     12724
Primitive shell pairs kept                  ...      9175
          la=0 lb=0:    884 shell pairs
          la=1 lb=0:   1016 shell pairs
          la=1 lb=1:    297 shell pairs
          la=2 lb=0:    574 shell pairs
          la=2 lb=1:    329 shell pairs
          la=2 lb=2:    102 shell pairs
          la=3 lb=0:    287 shell pairs
          la=3 lb=1:    165 shell pairs
          la=3 lb=2:     96 shell pairs
          la=3 lb=3:     27 shell pairs

[...]
      f0      :     0.000845  f :     0.009876
      f+1     :     0.001644
      f-1     :     0.000995
      f+2     :     0.001640
      f-2     :     0.000731
      f+3     :     0.001885
      f-3     :     0.002135

  6 C s       :     3.010959  s :     3.010959
      pz      :     0.795938  p :     2.296671
      px      :     0.764402
      py      :     0.736331
      dz2     :     0.022050  d :     0.303799
      dxz     :     0.070060
      dyz     :     0.043924
      dx2y2   :     0.073206
      dxy     :     0.094560
      f0      :     0.002785  f :     0.031836
      f+1     :     0.003095
      f-1     :     0.001939
      f+2     :     0.004045
      f-2     :     0.003718
      f+3     :     0.008180
      f-3     :     0.008074

  7 H s       :     0.882811  s :     0.882811
      pz      :     0.010420  p :     0.020675
      px      :     0.006088
      py      :     0.004166

  8 H s       :     0.867515  s :     0.867515
      pz      :     0.011549  p :     0.021230
      px      :     0.002773
      py      :     0.006908

  9 H s       :     0.848521  s :     0.848521
      pz      :     0.008464  p :     0.021266
      px      :     0.006254
      py      :     0.006548



                     *******************************
                     * LOEWDIN POPULATION ANALYSIS *
                     *******************************

----------------------
LOEWDIN ATOMIC CHARGES
----------------------
   0 F :    0.120454
   1 O :    0.282627
   2 O :    0.264374
   3 O :    0.151602
   4 C :   -0.398303
   5 C :   -0.240963
   6 C :   -0.585223
   7 H :    0.132631
   8 H :    0.133182
   9 H :    0.139619

-------------------------------
LOEWDIN REDUCED ORBITAL CHARGES
-------------------------------
  0 F s       :     3.624044  s :     3.624044
      pz      :     1.652904  p :     5.225809
      px      :     1.756180
      py      :     1.816726
      dz2     :     0.008559  d :     0.028364
      dxz     :     0.008831
      dyz     :     0.005627
      dx2y2   :     0.002306
      dxy     :     0.003041
      f0      :     0.000279  f :     0.001329
      f+1     :     0.000344
      f-1     :     0.000156
      f+2     :     0.000199
      f-2     :     0.000253
      f+3     :     0.000054
      f-3     :     0.000044

  1 O s       :     3.269788  s :     3.269788
      pz      :     1.560092  p :     4.335965
      px      :     1.252313
      py      :     1.523560
      dz2     :     0.011453  d :     0.104214
      dxz     :     0.018185
      dyz     :     0.008374
      dx2y2   :     0.023886
      dxy     :     0.042316
      f0      :     0.000601  f :     0.007406
      f+1     :     0.000833
      f-1     :     0.000378
      f+2     :     0.000516
      f-2     :     0.001225
      f+3     :     0.002215
      f-3     :     0.001637

  2 O s       :     3.271447  s :     3.271447
      pz      :     1.578590  p :     4.351273
      px      :     1.333571
      py      :     1.439112
      dz2     :     0.012216  d :     0.105513
      dxz     :     0.016790
      dyz     :     0.011131
      dx2y2   :     0.037938
      dxy     :     0.027439
      f0      :     0.000513  f :     0.007392
      f+1     :     0.000779
      f-1     :     0.000599
      f+2     :     0.001160
      f-2     :     0.000546
      f+3     :     0.001606
      f-3     :     0.002189

  3 O s       :     3.395036  s :     3.395036
      pz      :     1.342147  p :     4.378956
      px      :     1.479077
      py      :     1.557731
      dz2     :     0.008739  d :     0.067600
      dxz     :     0.016095
      dyz     :     0.002142
      dx2y2   :     0.022715
      dxy     :     0.017908
      f0      :     0.000602  f :     0.006806
      f+1     :     0.001079
      f-1     :     0.000158
      f+2     :     0.000858
      f-2     :     0.000520
      f+3     :     0.001750
      f-3     :     0.001839

  4 C s       :     2.788562  s :     2.788562
      pz      :     0.869900  p :     2.678254
      px      :     0.827856
      py      :     0.980499
      dz2     :     0.157025  d :     0.789412
      dxz     :     0.208035
      dyz     :     0.113796
      dx2y2   :     0.156534
      dxy     :     0.154022
      f0      :     0.021055  f :     0.142074
      f+1     :     0.021066
      f-1     :     0.015891
      f+2     :     0.018962
      f-2     :     0.023808
      f+3     :     0.022454
      f-3     :     0.018839

  5 C s       :     2.814389  s :     2.814389
      pz      :     1.042589  p :     2.894469
      px      :     0.813162
      py      :     1.038717
      dz2     :     0.067900  d :     0.463004
      dxz     :     0.106741
      dyz     :     0.074213
      dx2y2   :     0.113601
      dxy     :     0.100549
      f0      :     0.006189  f :     0.069101
      f+1     :     0.010747
      f-1     :     0.004626
      f+2     :     0.011385
      f-2     :     0.005734
      f+3     :     0.014313
      f-3     :     0.016106

  6 C s       :     2.739202  s :     2.739202
      pz      :     0.791148  p :     2.591960
      px      :     0.941161
      py      :     0.859652
      dz2     :     0.098740  d :     1.065561
      dxz     :     0.196689
      dyz     :     0.139161
      dx2y2   :     0.288750
      dxy     :     0.342220
      f0      :     0.012195  f :     0.188499
      f+1     :     0.015932
      f-1     :     0.012555
      f+2     :     0.026345
      f-2     :     0.022562
      f+3     :     0.049777
      f-3     :     0.049133

  7 H s       :     0.809988  s :     0.809988
      pz      :     0.029042  p :     0.057381
      px      :     0.016258
      py      :     0.012081

  8 H s       :     0.807316  s :     0.807316
      pz      :     0.032643  p :     0.059502
      px      :     0.008675
      py      :     0.018184

  9 H s       :     0.800260  s :     0.800260
      pz      :     0.025289  p :     0.060121
      px      :     0.017264
      py      :     0.017568



                      *****************************
                      * MAYER POPULATION ANALYSIS *
                      *****************************

  NA   - Mulliken gross atomic population
  ZA   - Total nuclear charge
  QA   - Mulliken gross atomic charge
  VA   - Mayer's total valence
  BVA  - Mayer's bonded valence
  FA   - Mayer's free valence

  ATOM       NA         ZA         QA         VA         BVA        FA
  0 F      9.2149     9.0000    -0.2149     1.0502     1.0502     0.0000
  1 O      8.2315     8.0000    -0.2315     2.1378     2.1378    -0.0000
  2 O      8.2409     8.0000    -0.2409     2.1403     2.1403     0.0000
  3 O      8.2400     8.0000    -0.2400     2.2620     2.2620    -0.0000
  4 C      5.7586     6.0000     0.2414     4.0891     4.0891     0.0000
  5 C      6.0088     6.0000    -0.0088     3.8328     3.8328     0.0000
  6 C      5.6433     6.0000     0.3567     4.4969     4.4969     0.0000
  7 H      0.9035     1.0000     0.0965     0.9624     0.9624     0.0000
  8 H      0.8887     1.0000     0.1113     0.9594     0.9594     0.0000
  9 H      0.8698     1.0000     0.1302     0.9686     0.9686     0.0000

  Mayer bond orders larger than 0.100000
B(  0-F ,  4-C ) :   1.0450 B(  1-O ,  4-C ) :   1.0421 B(  1-O ,  6-C ) :   1.0797 
B(  2-O ,  5-C ) :   0.9470 B(  2-O ,  6-C ) :   1.1548 B(  3-O ,  6-C ) :   2.1839 
B(  4-C ,  5-C ) :   0.9747 B(  4-C ,  7-H ) :   0.9750 B(  5-C ,  8-H ) :   0.9459 
B(  5-C ,  9-H ) :   0.9558 

-------
TIMINGS
-------

Total SCF time: 0 days 0 hours 0 min 2 sec 

Total time                  ....       2.524 sec
Sum of individual times     ....       2.446 sec  ( 96.9%)

SCF preparation             ....       0.600 sec  ( 23.8%)
Fock matrix formation       ....       1.651 sec  ( 65.4%)
  Startup                   ....       0.022 sec  (  1.3% of F)
  Split-RI-J                ....       0.106 sec  (  6.4% of F)
  Chain of spheres X        ....       1.252 sec  ( 75.9% of F)
  XC integration            ....       0.227 sec  ( 13.7% of F)
    XC Preparation          ....       0.000 sec  (  0.0% of XC)
    Basis function eval.    ....       0.037 sec  ( 16.3% of XC)
    Density eval.           ....       0.028 sec  ( 12.3% of XC)
    XC-Functional eval.     ....       0.007 sec  (  3.3% of XC)
    XC-Potential eval.      ....       0.053 sec  ( 23.2% of XC)
Diagonalization             ....       0.000 sec  (  0.0%)
Density matrix formation    ....       0.034 sec  (  1.4%)
Total Energy calculation    ....       0.018 sec  (  0.7%)
Population analysis         ....       0.037 sec  (  1.5%)
Orbital Transformation      ....       0.020 sec  (  0.8%)
Orbital Orthonormalization  ....       0.000 sec  (  0.0%)
DIIS solution               ....       0.029 sec  (  1.2%)
SOSCF solution              ....       0.056 sec  (  2.2%)
Finished LeanSCF after   2.6 sec

Maximum memory used throughout the entire LEANSCF-calculation: 21.1 MB
[psid04:27752] 19 more processes have sent help message help-mpi-btl-openib.txt / ib port not selected
[psid04:27752] Set MCA parameter "orte_base_help_aggregate" to 0 to see all help / error messages
[psid04:27752] 19 more processes have sent help message help-mpi-btl-openib.txt / error in device init

-------------------------   --------------------
FINAL SINGLE POINT ENERGY      -441.632485802290
-------------------------   --------------------

                                *** OPTIMIZATION RUN DONE ***

--------------------------------------------------------------------------
By default, for Open MPI 4.0 and later, infiniband ports on a device
are not used by default.  The intent is to use UCX for these devices.
You can override this policy by setting the btl_openib_allow_ib MCA parameter
to true.

  Local host:              psid04
  Local adapter:           mlx5_0
  Local port:              1

--------------------------------------------------------------------------
--------------------------------------------------------------------------
WARNING: There was an error initializing an OpenFabrics device.

  Local host:   psid04
  Local device: mlx5_0
--------------------------------------------------------------------------


           ************************************************************
           *        Program running with 20 parallel MPI-processes    *
           *              working on a common directory               *
           ************************************************************

------------------------------------------------------------------------------
                              ORCA PROPERTY CALCULATIONS
------------------------------------------------------------------------------

GBWName                                 ... FEC.gbw
Number of atoms                         ...     10
Number of basis functions               ...    235
Max core memory                         ...   5000 MB

Electric properties:
Dipole moment                           ... YES
Quadrupole moment                       ...  NO
Static polarizability (Dipole/Dipole)   ...  NO
Static polarizability (Dipole/Quad.)    ...  NO
Static polarizability (Quad./Quad.)     ...  NO
Static polarizability (Velocity)        ...  NO

Atomic electric properties:
Dipole moment                           ...  NO
Quadrupole moment                       ...  NO
Static polarizability                   ...  NO

Choice of electric origin               ... Center of mass
Position of electric origin             ...    -0.124474     0.032385    -0.027524

General magnetic properties:
Magnetizability                         ...  NO

EPR properties:
g-Tensor (aka g-matrix)                 ...  NO
Zero-Field splitting spin-orbit         ...  NO
Zero-field splitting spin-spin          ...  NO
Hyperfine couplings                     ...  NO (   0 nuclei)
Quadrupole couplings                    ...  NO (   0 nuclei)
Contact density                         ...  NO (   0 nuclei)

NMR properties:
Chemical shifts                         ...  NO (   0 nuclei)
Spin-rotation constants                 ...  NO (   0 nuclei)
Spin-spin couplings                     ...  NO (   0 nuclei,    0 pairs)

Choice of magnetic origin               ... GIAO
Position of magnetic origin             ...     0.000000     0.000000     0.000000

Properties with geometric perturbations:
SCF Hessian                             ...  NO
IR spectrum                             ...  NO
VCD spectrum                            ...  NO
X-ray spectroscopy properties:
SCF XES/XAS/RIXS spectra                ...  NO


-------------
DIPOLE MOMENT
-------------

Method             : SCF
Type of density    : Electron Density
Multiplicity       :   1
Irrep              :   0
Energy             :  -441.6324858022899207 Eh
Relativity type    : 
Basis              : AO
                                X                 Y                 Z
Electronic contribution:      0.384639488       2.555260022      -1.803421491
Nuclear contribution   :     -1.840183293      -3.401907833       2.619362971
                        -----------------------------------------
Total Dipole Moment    :     -1.455543805      -0.846647811       0.815941480
                        -----------------------------------------
Magnitude (a.u.)       :      1.871144245
Magnitude (Debye)      :      4.756070699



--------------------
Rotational spectrum 
--------------------
 
Rotational constants in cm-1:             0.185828             0.079831             0.063943 
Rotational constants in MHz :          5570.996574          2393.271046          1916.951086 

Dipole components along the rotational axes: 
x,y,z [a.u.] :     1.377871    -0.998661     0.778029 
x,y,z [Debye]:     3.502269    -2.538395     1.977593 

 

Dipole moment calculation done in   0.0 sec 

Maximum memory used throughout the entire PROP-calculation: 11.0 MB
[psid04:27818] 19 more processes have sent help message help-mpi-btl-openib.txt / ib port not selected
[psid04:27818] Set MCA parameter "orte_base_help_aggregate" to 0 to see all help / error messages
[psid04:27818] 19 more processes have sent help message help-mpi-btl-openib.txt / error in device init
--------------------------------------------------------------------------
By default, for Open MPI 4.0 and later, infiniband ports on a device
are not used by default.  The intent is to use UCX for these devices.
You can override this policy by setting the btl_openib_allow_ib MCA parameter
to true.

  Local host:              psid04
  Local adapter:           mlx5_0
  Local port:              1

--------------------------------------------------------------------------
--------------------------------------------------------------------------
WARNING: There was an error initializing an OpenFabrics device.

  Local host:   psid04
  Local device: mlx5_0
--------------------------------------------------------------------------
[psid04:27883] 19 more processes have sent help message help-mpi-btl-openib.txt / ib port not selected
[psid04:27883] Set MCA parameter "orte_base_help_aggregate" to 0 to see all help / error messages
[psid04:27883] 19 more processes have sent help message help-mpi-btl-openib.txt / error in device init

--------------------------------
SUGGESTED CITATIONS FOR THIS RUN
--------------------------------

Below you find a list of papers that are relevant to this ORCA run
We neither can nor want to force you to cite these papers, but we appreciate if you do
You receive ORCA, which is the product of decades of hard work by many enthusiastic individuals, for free
The only thing we kindly ask in return is that you cite our papers,
We deeply appreciate it, if you show your appreciation for ORCA by not just citing the generic ORCA reference.

Please note that relegating all ORCA citations to the supporting information does *not* help us.
SI sections are not indexed - citations you put there will not count into any citation statistics
But we need these citations in order to attract the funding resources that allow us to do what we are doing

Therefore, if you are a happy ORCA user, please consider citing a few of the papers listed below in the main body of your paper

In addition to the list printed below, the program has created the file FEC.bibtex that contains the list in bibtex format
You can import this file easily into all common literature databanks and citation aid programs


List of essential papers. We consider these as the minimum necessary citations

  1. Neese,F.
     Software update: the ORCA program system, version 5.0
     WIRES Comput. Molec. Sci., 2022 12(1)e1606
     doi.org/10.1002/wcms.1606

List of papers to cite with high priority. The work reported in these papers was absolutely
necessary for this run to complete.
Our perspective: the developers of density functionals and basis sets usually get cited in chemistry papers
Good! But without the algorithms to do something with them, the functionals or basis sets would not do anything.
Hence, in our opinion, the algorithm design and method developments papers are equally worthy of getting cited

  1. Neese,F.
     An improvement of the resolution of the identity approximation for the formation of the Coulomb matrix
     J. Comp. Chem., 2003 24(14)1740-1747
     doi.org/10.1002/jcc.10318
  2. Neese,F.; Wennmohs,F.; Hansen,A.; Becker,U.
     Efficient, approximate and parallel Hartree-Fock and hybrid DFT calculations. A 'chain-of-spheres' algorithm for the Hartree-Fock exchange
     Chem. Phys., 2009 356(1-3)98-109
     doi.org/10.1016/j.chemphys.2008.10.036
  3. Helmich-Paris,B.; de Souza,B.; Neese,F.; Izsák,R.
     An improved chain of spheres for exchange algorithm
     J. Chem. Phys., 2021 155 104109
     doi.org/doi: 10.1063/5.0058766.
  4. Neese,F.
     The SHARK Integral Generation and Digestion System
     J. Comp. Chem., 2022  1-16
     doi.org/10.1002/jcc.26942

List of suggested additional citations. These are papers that are important in the 'surrounding' of 
of this run, or papers that preceded the highly important papers. If you like your results we are grateful for a citation.

  1. Izsak,R.; Neese,F.
     An overlap fitted chain of spheres exchange method
     J. Chem. Phys., 2011 135 144105
     doi.org/10.1063/1.3646921
  2. Izsak,R.; Hansen,A.; Neese,F.
     The resolution of identity and chain of spheres approximations for the LPNO-CCSD singles Fock term
     Molec. Phys., 2012 110 2413-2417
     doi.org/10.1080/00268976.2012.687466
  3. Neese,F.
     The ORCA program system
     WIRES Comput. Molec. Sci., 2012 2(1)73-78
     doi.org/10.1002/wcms.81
  4. Izsak,R.; Neese,F.; Klopper,W.
     Robust fitting techniques in the chain of spheres approximation to the Fock exchange: The role of the complementary space
     J. Chem. Phys., 2013 139 
     doi.org/10.1063/1.4819264
  5. Neese,F.
     Software update: the ORCA program system, version 4.0
     WIRES Comput. Molec. Sci., 2018 8(1)1-6
     doi.org/10.1002/wcms.1327
  6. Neese,F.; Wennmohs,F.; Becker,U.; Riplinger,C.
     The ORCA quantum chemistry program package
     J. Chem. Phys., 2020 152 Art. No. L224108
     doi.org/10.1063/5.0004608

List of optional additional citations

  1. Neese,F.
     Approximate second-order SCF convergence for spin unrestricted wavefunctions
     Chem. Phys. Lett., 2000 325(1-3)93-98
     doi.org/10.1016/s0009-2614(00)00662-x

Timings for individual modules:

Sum of individual times          ...      110.564 sec (=   1.843 min)
Startup calculation              ...       15.716 sec (=   0.262 min)  14.2 %
SCF iterations                   ...       61.726 sec (=   1.029 min)  55.8 %
Property calculations            ...        0.654 sec (=   0.011 min)   0.6 %
SCF Gradient evaluation          ...       32.396 sec (=   0.540 min)  29.3 %
Geometry relaxation              ...        0.072 sec (=   0.001 min)   0.1 %
                             ****ORCA TERMINATED NORMALLY****
TOTAL RUN TIME: 0 days 0 hours 2 minutes 2 seconds 14 msec
