
                                 *****************
                                 * O   R   C   A *
                                 *****************

                                            #,                                       
                                            ###                                      
                                            ####                                     
                                            #####                                    
                                            ######                                   
                                           ########,                                 
                                     ,,################,,,,,                         
                               ,,#################################,,                 
                          ,,##########################################,,             
                       ,#########################################, ''#####,          
                    ,#############################################,,   '####,        
                  ,##################################################,,,,####,       
                ,###########''''           ''''###############################       
              ,#####''   ,,,,##########,,,,          '''####'''          '####       
            ,##' ,,,,###########################,,,                        '##       
           ' ,,###''''                  '''############,,,                           
         ,,##''                                '''############,,,,        ,,,,,,###''
      ,#''                                            '''#######################'''  
     '                                                          ''''####''''         
             ,#######,   #######,   ,#######,      ##                                
            ,#'     '#,  ##    ##  ,#'     '#,    #''#        ,####,   ,####,        
            ##       ##  ##   ,#'  ##            #'  '#       #'       #'  '#        
            ##       ##  #######   ##           ,######,      #####,   #    #        
            '#,     ,#'  ##    ##  '#,     ,#' ,#      #,     #,   #   #,  ,#        
             '#######'   ##     ##  '#######'  #'      '#     '####' # '####'        



                #########################################################
                #                        -***-                          #
                #          Department of theory and spectroscopy        #
                #                                                       #
                #                      Frank Neese                      #
                #                                                       #
                #     Directorship, Architecture, Infrastructure        #
                #                    SHARK, DRIVERS                     #
                #        Core code/Algorithms in most modules           #
                #                                                       #
                #        Max Planck Institute fuer Kohlenforschung      #
                #                Kaiser Wilhelm Platz 1                 #
                #                 D-45470 Muelheim/Ruhr                 #
                #                      Germany                          #
                #                                                       #
                #                  All rights reserved                  #
                #                        -***-                          #
                #########################################################


                         Program Version 6.0.1  -  RELEASE   -


 With contributions from (in alphabetic order):
[Max-Planck-Institut fuer Kohlenforschung]                               
  Daniel Aravena         : Magnetic Suceptibility                        
  Michael Atanasov       : Ab Initio Ligand Field Theory (pilot matlab implementation)
  Alexander A. Auer      : GIAO ZORA, VPT2 properties, NMR spectrum      
  Ute Becker             : All parallelization in ORCA, NUMFREQ, NUMCALC 
  Giovanni Bistoni       : ED, misc. LED, open-shell LED, HFLD           
  Martin Brehm           : Molecular dynamics                            
  Dmytro Bykov           : pre 5.0 version of the SCF Hessian            
  Marcos Casanova-Páez   : Triplet and SCS-CIS(D). UHF-(DLPNO)-IP/EA/STEOM-CCSD. UHF-CVS-IP/STEOM-CCSD   
  Vijay G. Chilkuri      : MRCI spin determinant printing, contributions to CSF-ICE 
  Pauline Colinet        : FMM embedding                                 
  Dipayan Datta          : RHF DLPNO-CCSD density                        
  Achintya Kumar Dutta   : EOM-CC, STEOM-CC                              
  Nicolas Foglia         : Exact transition moments, OPA infrastructure, MCD improvements    
  Dmitry Ganyushin       : Spin-Orbit,Spin-Spin,Magnetic field MRCI      
  Miquel Garcia-Rates    : C-PCM and meta-GGA Hessian, CCSD/C-PCM, Gaussian charge scheme 
  Tiago L. C. Gouveia    : GS-ROHF, GS-ROCIS                             
  Yang Guo               : DLPNO-NEVPT2, F12-NEVPT2, CIM, IAO-localization        
  Andreas Hansen         : Spin unrestricted coupled pair/coupled cluster methods 
  Ingolf Harden          : AUTO-CI MPn and infrastructure                
  Benjamin Helmich-Paris : MC-RPA, TRAH-(SCF,CASSCF), AVAS, COSX integrals, SCF dyn. polar. 
  Lee Huntington         : MR-EOM, pCC                                   
  Robert Izsak           : Overlap fitted RIJCOSX, COSX-SCS-MP3, EOM     
  Riya Kayal             : Wick's Theorem for AUTO-CI, AUTO-CI UHF-CCSDT 
  Emily Kempfer          : AUTO-CI, RHF CISDT and CCSDT                  
  Christian Kollmar      : KDIIS, OOCD, Brueckner-CCSD(T), CCSD density, CASPT2, CASPT2-K, improved NEVPT2 
  Axel Koslowski         : Symmetry handling                             
  Simone Kossmann        : meta-GGA functionals, TD-DFT gradient, OOMP2, (MP2 Hessian; deprecated post 5.0) 
  Lucas Lang             : DCDCAS                                        
  Marvin Lechner         : AUTO-CI (C++ implementation), FIC-MRCC        
  Spencer Leger          : CASSCF response                               
  Dagmar Lenk            : GEPOL surface, SMD, ORCA-2-JSON               
  Dimitrios Liakos       : Extrapolation schemes; Compound Job, initial MDCI parallelization 
  Dimitrios Manganas     : Further ROCIS development; embedding schemes. LFT, Crystal Embedding 
  Dimitrios Pantazis     : SARC Basis sets                               
  Anastasios Papadopoulos: AUTO-CI, single reference methods and gradients 
  Taras Petrenko         : pre 6.0 DFT Hessian and TD-DFT gradient, (ASA, deprecated), ECA, 1-Electron XAS/XES, NRVS 
  Peter Pinski           : DLPNO-MP2, DLPNO-MP2 Gradient                 
  Christoph Reimann      : Effective Core Potentials                     
  Marius Retegan         : Local ZFS, SOC                                
  Christoph Riplinger    : Optimizer, TS searches, QM/MM, DLPNO-CCSD(T), (RO)-DLPNO pert. Triples 
  Michael Roemelt        : Original ROCIS implementation                 
  Masaaki Saitow         : Open-shell DLPNO-CCSD energy and density      
  Barbara Sandhoefer     : DKH picture change effects                    
  Kantharuban Sivalingam : CASSCF convergence/infrastructure, NEVPT2 and variants, FIC-MRCI 
  Bernardo de Souza      : ESD, SOC TD-DFT                               
  Georgi L. Stoychev     : AutoAux, RI-MP2 NMR, DLPNO-MP2 response, X2C  
  Van Anh Tran           : RI-MP2 g-tensors                              
  Willem Van den Heuvel  : Paramagnetic NMR                              
  Zikuan Wang            : NOTCH, Electric field optimization            
  Frank Wennmohs         : Technical directorship and infrastructure     
  Hang Xu                : AUTO-CI-Response properties                   
                                                                         
[FACCTs GmbH]                                                            
  Markus Bursch, Miquel Garcia-Rates, Christoph Riplinger, Bernardo de Souza, Georgi L. Stoychev 
                                                                 
  APM, Basis sets (HGBS, AHGBS, def-TZVP (Ac-Lr), def2-XVPD (La-Lu)), CI-OPT, improved COSX, DLPNO-Multilevel,           
  DOCKER, DRACO, updates on ESD, GOAT, IRC, LR-CPCM, MBIS, meta-GGA TD-DFT gradient, ML-optimized integration grids, 
  MM, NACMEs, nearIR, NEB, NEB-TS, NL-DFT gradient (VV10), 2- and 3-layer-ONIOM, interface openCOSMO-RS, QMMM,   
  Crystal-QMMM, SF, symmetry and pop. for TD-DFT, r2SCAN hybrids, SOLVATOR                                   
                                                                         
[Other institutions]                                                     
  V. Asgeirsson          : NEB                                           
  Christoph Bannwarth    : sTDA-DFT, sTD-DFT, PBEh-3c, B97-3c, D3        
  Sebastian Ehlert       : rSCAN, r2SCAN, r2SCAN-3c, D4, dhf basis sets  
  Marvin Friede          : D4 for Fr, Ra, Ac-Lr                          
  Lars Goerigk           : TD-DFT with DH, B97 family of functionals     
  Stefan Grimme          : VdW corrections, initial TS optimization, DFT functionals, gCP, sTDA/sTD-DF 
  Waldemar Hujo          : DFT-NL                                        
  H. Jonsson             : NEB                                           
  Holger Kruse           : gCP                                           
  Marcel Mueller         : wB97X-3c, vDZP basis set                      
  Hagen Neugebauer       : wr2SCAN                                       
  Tobias Risthaus        : range-separated hybrid DFT                    
  Lukas Wittmann         : regularized MP2, r2SCAN double-hybrids, wr2SCAN        
                                                                         
We gratefully acknowledge several colleagues who have allowed us to      
interface, adapt or use parts of their codes:                            
  Ed Valeev, F. Pavosevic, A. Kumar             : LibInt (2-el integral package), F12 methods 
  Garnet Chan, S. Sharma, J. Yang, R. Olivares  : DMRG                   
  Ulf Ekstrom                                   : XCFun DFT Library      
  Mihaly Kallay                                 : mrcc  (arbitrary order and MRCC methods)
  Frank Weinhold                                : gennbo (NPA and NBO analysis)           
  Simon Mueller                                 : openCOSMO-RS                            
  Christopher J. Cramer and Donald G. Truhlar   : smd solvation model                     
  S Lehtola, MJT Oliveira, MAL Marques          : LibXC Library                           
  Liviu Ungur et al                             : ANISO software                          


 Your calculation uses the libint2 library for the computation of 2-el integrals
 For citations please refer to: http://libint.valeyev.net

 Your ORCA version has been built with support for libXC version: 6.2.2
 For citations please refer to: https://libxc.gitlab.io

 This ORCA versions uses:
   CBLAS   interface :  Fast vector & matrix operations
   LAPACKE interface :  Fast linear algebra routines
   SCALAPACK package :  Parallel linear algebra routines
   Shared memory     :  Shared parallel matrices
   BLAS/LAPACK       :  OpenBLAS 0.3.27  USE64BITINT DYNAMIC_ARCH NO_AFFINITY SkylakeX SINGLE_THREADED
        Core in use  :  SkylakeX
   Copyright (c) 2011-2014, The OpenBLAS Project


NOTE: MaxCore=5000 MB was set to SCF,MP2,MDCI,CIPSI,MRCI and CIS
      => If you want to overwrite this, your respective input block should be placed after the MaxCore statement
Warning: RI is on but no J-basis has been assigned. Assigning Def2/J (nothing to worry about!)
================================================================================

----- Orbital basis set information -----
Your calculation utilizes the basis: def2-TZVP
   F. Weigend and R. Ahlrichs, Phys. Chem. Chem. Phys. 7, 3297 (2005).

----- AuxJ basis set information -----
Your calculation utilizes the auxiliary basis: def2/J
   F. Weigend, Phys. Chem. Chem. Phys. 8, 1057 (2006).

================================================================================
                                        WARNINGS
                       Please study these warnings very carefully!
================================================================================

WARNING: Old DensityContainer found on disk!
         Will remove this file - 
         If you want to keep old densities, please start your calculation with a different basename. 


WARNING: Geometry Optimization
  ===> : Switching off AutoStart
         For restart on a previous wavefunction, please use MOREAD

================================================================================
                                       INPUT FILE
================================================================================
NAME = honokiol2-opt_EC_closer.inp
|  1> ! OPT B3LYP def2-TZVP TightSCF
|  2> 
|  3> %maxcore 5000
|  4> 
|  5> %pal
|  6> nprocs 20
|  7> end
|  8> 
|  9> * xyz 0 1
| 10> O           1.05346500653278      1.48840146399471      2.34492505679218
| 11>   O          -3.84774285879652     -2.49204764814425      1.79954590433012
| 12>   C           1.04676702317788     -0.00207786424045      0.40961089352861
| 13>   C          -0.24373231261313     -0.64781704094021      0.76500728321394
| 14>   C          -2.53339888365915     -1.26790242478875      0.15808061332907
| 15>   C          -1.31400529537794     -0.65954800134277     -0.13246316655348
| 16>   C           2.95793886892146      0.14016434339676     -1.11621857852708
| 17>   C           1.72457251576715     -0.39184387765122     -0.74855484579376
| 18>   C           1.62663615445144      0.99563397707774      1.21639437576577
| 19>   C          -0.41745049754751     -1.29428213844687      1.99210372963733
| 20>   C          -2.67030133371649     -1.90706339244914      1.39856368903759
| 21>   C          -3.68691437530110     -1.19816734571991     -0.82291686186715
| 22>   C           3.66249754406118     -0.32752908230165     -2.37603523257237
| 23>   C           3.51982296327623      1.10593748091839     -0.28242010261886
| 24>   C          -1.61274690026596     -1.92500480155017      2.30129325024987
| 25>   C           2.86376038370966      1.53163960067732      0.86242203899488
| 26>   C          -4.19172221619656     -2.54581426665927     -1.26980036236090
| 27>   C           2.92089960092536      0.01780033342633     -3.63809202546816
| 28>   C          -5.45360662285928     -2.95830122006345     -1.18353304023077
| 29>   C           2.52251505017108     -0.85513247030207     -4.55605983792434
| 30>   H          -1.20198335598888     -0.15143823469159     -1.08365409709205
| 31>   H           1.27391000424752     -1.15788984880753     -1.36998366997542
| 32>   H           0.39505953568200     -1.31470326689560      2.70720477082760
| 33>   H          -4.51631215211082     -0.62656012209923     -0.39177944056328
| 34>   H          -3.35014142419861     -0.64029242992810     -1.70123383831384
| 35>   H           3.82538169728302     -1.40928509922117     -2.34079299459823
| 36>   H           4.65393210509292      0.13646511578098     -2.40787073064259
| 37>   H           4.48248847068922      1.53775313912858     -0.53289069184756
| 38>   H          -1.73879450240140     -2.44195644588537      3.24399522159132
| 39>   H           3.28887433804878      2.29829278947229      1.49754604358449
| 40>   H          -3.44218531674804     -3.21465714231323     -1.68529684464286
| 41>   H           2.70206559915010      1.07363778395518     -3.77923128179293
| 42>   H           0.10295011843383      1.29946562070753      2.40235531243361
| 43>   H          -4.37076254794299     -2.74227893107231      1.02331632349667
| 44>   H          -5.75511584612542     -3.93934652784532     -1.52829943409211
| 45>   H          -6.23478090440883     -2.31911679982631     -0.78388045310781
| 46>   H           1.99318008373227     -0.54085718112357     -5.44716164973157
| 47>   H           2.71558185660640     -1.91768796345466     -4.45145034388000
| 48>   H          -5.58893738321522      1.40190123096959      4.14807180133537
| 49>   H          -4.52986129062834     -0.13185747150585      5.68710699564510
| 50>   C          -4.98018920782799      0.63415485633589      3.66777725915642
| 51>   O          -2.86357519809789      0.40015919993715      4.59949943106635
| 52>   C          -2.76700302077443      1.16881365008756      3.49424246481103
| 53>   C          -4.16879810072601     -0.19975932358076      4.66305889240366
| 54>   O          -3.96666864326183      1.28201531668974      2.88240038547100
| 55>   O          -1.76354261316660      1.68768503446876      3.11220561284510
| 56>   H          -5.59690464599994      0.02901291423595      3.00726049629562
| 57>   H          -4.08814812820331     -1.24396900220967      4.36088842455440
| 58> *
| 59> 
| 60>                          ****END OF INPUT****
================================================================================

                       *****************************
                       * Geometry Optimization Run *
                       *****************************

Geometry optimization settings:
Update method            Update   .... BFGS
Choice of coordinates    CoordSys .... (2022) Redundant Internals
Initial Hessian          InHess   .... Almloef's Model
Max. no of cycles        MaxIter  .... 144

Convergence Tolerances:
Energy Change            TolE     ....  5.0000e-06 Eh
Max. Gradient            TolMAXG  ....  3.0000e-04 Eh/bohr
RMS Gradient             TolRMSG  ....  1.0000e-04 Eh/bohr
Max. Displacement        TolMAXD  ....  4.0000e-03 bohr
RMS Displacement         TolRMSD  ....  2.0000e-03 bohr
Strict Convergence                .... False

------------------------------------------------------------------------------
                        ORCA OPTIMIZATION COORDINATE SETUP
------------------------------------------------------------------------------

The optimization will be done in redundant internal coordinates (2022)
Making redundant internal coordinates   ...  (2022 redundants) done
Evaluating the initial hessian          ...  (Almloef) done
Evaluating the coordinates              ...  done
Calculating the B-matrix                .... done
Calculating the G-matrix                .... done
Diagonalizing the G-matrix              .... done
Small eigenvalue found = 1.670e-03
Small eigenvalue found = 2.951e-03
Small eigenvalue found = 4.233e-03
Small eigenvalue found = 8.776e-03
Small eigenvalue found = 1.261e-02
Small eigenvalue found = 1.398e-02
Small eigenvalue found = 1.705e-02
Small eigenvalue found = 2.332e-02
The first mode is                       ....   98
The number of degrees of freedom        ....  138

    -----------------------------------------------------------------
                    Redundant Internal Coordinates


    -----------------------------------------------------------------
         Definition                    Initial Value    Approx d2E/dq
    -----------------------------------------------------------------
      1. B(C   3,C   2)                  1.4862         0.438854   
      2. B(C   5,C   4)                  1.3934         0.617148   
      3. B(C   5,C   3)                  1.3968         0.609362   
      4. B(C   7,C   6)                  1.3926         0.618802   
      5. B(C   7,C   2)                  1.3974         0.608073   
      6. B(C   8,C   2)                  1.4080         0.584732   
      7. B(C   8,O   0)                  1.3583         0.628755   
      8. B(C   9,C   3)                  1.3978         0.607135   
      9. B(C  10,C   4)                  1.4022         0.597489   
     10. B(C  10,O   1)                  1.3745         0.592298   
     11. B(C  11,C   4)                  1.5159         0.393500   
     12. B(C  12,C   6)                  1.5173         0.391380   
     13. B(C  13,C   6)                  1.3941         0.615346   
     14. B(C  14,C  10)                  1.3906         0.623507   
     15. B(C  14,C   9)                  1.3864         0.633083   
     16. B(C  15,C  13)                  1.3865         0.632947   
     17. B(C  15,C   8)                  1.3939         0.615813   
     18. B(C  16,C  11)                  1.5069         0.406690   
     19. B(C  17,C  12)                  1.5040         0.411020   
     20. B(C  18,C  16)                  1.3304         0.777752   
     21. B(C  19,C  17)                  1.3279         0.784827   
     22. B(H  20,C   5)                  1.0842         0.367856   
     23. B(H  21,C   7)                  1.0845         0.367477   
     24. B(H  22,C   9)                  1.0826         0.370064   
     25. B(H  23,C  11)                  1.0957         0.352664   
     26. B(H  24,C  11)                  1.0937         0.355297   
     27. B(H  25,C  12)                  1.0945         0.354173   
     28. B(H  26,C  12)                  1.0951         0.353415   
     29. B(H  27,C  13)                  1.0844         0.367584   
     30. B(H  28,C  14)                  1.0825         0.370155   
     31. B(H  29,C  15)                  1.0825         0.370125   
     32. B(H  30,C  16)                  1.0871         0.363952   
     33. B(H  31,C  17)                  1.0875         0.363456   
     34. B(H  32,O   0)                  0.9708         0.499711   
     35. B(H  33,O   1)                  0.9689         0.503297   
     36. B(H  34,C  18)                  1.0827         0.369899   
     37. B(H  35,C  18)                  1.0856         0.365977   
     38. B(H  36,C  19)                  1.0831         0.369394   
     39. B(H  37,C  19)                  1.0850         0.366765   
     40. B(C  40,H  38)                  1.0912         0.358532   
     41. B(C  42,O  41)                  1.3497         0.648839   
     42. B(C  43,O  41)                  1.4379         0.469308   
     43. B(C  43,C  40)                  1.5311         0.372029   
     44. B(C  43,H  39)                  1.0880         0.362812   
     45. B(O  44,C  42)                  1.3514         0.644780   
     46. B(O  44,C  40)                  1.4366         0.471584   
     47. B(O  45,H  32)                  2.0343         0.010046   
     48. B(O  45,C  42)                  1.1925         1.155943   
     49. B(H  46,C  40)                  1.0876         0.363324   
     50. B(H  47,O   1)                  2.8594         0.000485   
     51. B(H  47,C  43)                  1.0900         0.360048   
     52. A(C   8,O   0,H  32)          113.0608         0.368486   
     53. A(C  10,O   1,H  33)          109.7927         0.365180   
     54. A(C   3,C   2,C   8)          121.9019         0.403904   
     55. A(C   3,C   2,C   7)          119.8809         0.406706   
     56. A(C   7,C   2,C   8)          118.2147         0.428028   
     57. A(C   5,C   3,C   9)          117.7061         0.431090   
     58. A(C   2,C   3,C   9)          121.2518         0.406595   
     59. A(C   2,C   3,C   5)          121.0208         0.406859   
     60. A(C  10,C   4,C  11)          121.2791         0.397729   
     61. A(C   5,C   4,C  11)          120.7257         0.399999   
     62. A(C   5,C   4,C  10)          117.9660         0.430833   
     63. A(C   3,C   5,H  20)          118.7238         0.353148   
     64. A(C   3,C   5,C   4)          122.7009         0.432359   
     65. A(C   4,C   5,H  20)          118.5536         0.353908   
     66. A(C  12,C   6,C  13)          121.5304         0.399414   
     67. A(C   7,C   6,C  12)          120.8433         0.399807   
     68. A(C   7,C   6,C  13)          117.6250         0.433327   
     69. A(C   2,C   7,H  21)          118.0591         0.352960   
     70. A(C   2,C   7,C   6)          122.8090         0.432402   
     71. A(C   6,C   7,H  21)          119.1173         0.354007   
     72. A(O   0,C   8,C   2)          124.0105         0.427794   
     73. A(C   2,C   8,C  15)          119.5026         0.429000   
     74. A(O   0,C   8,C  15)          116.4869         0.431788   
     75. A(C   3,C   9,C  14)          120.8855         0.434059   
     76. A(C  14,C   9,H  22)          119.4182         0.355802   
     77. A(C   3,C   9,H  22)          119.6918         0.353287   
     78. A(O   1,C  10,C   4)          122.3926         0.424881   
     79. A(O   1,C  10,C  14)          117.1678         0.428137   
     80. A(C   4,C  10,C  14)          120.3946         0.431627   
     81. A(C   4,C  11,C  16)          113.9353         0.371985   
     82. A(H  23,C  11,H  24)          106.4389         0.289279   
     83. A(C  16,C  11,H  24)          108.7347         0.328158   
     84. A(C   4,C  11,H  24)          107.9914         0.326380   
     85. A(C  16,C  11,H  23)          109.2488         0.327756   
     86. A(C   4,C  11,H  23)          110.2050         0.325981   
     87. A(C   6,C  12,C  17)          113.3901         0.372318   
     88. A(H  25,C  12,H  26)          106.5568         0.289232   
     89. A(C   6,C  12,H  26)          108.2959         0.325805   
     90. A(C  17,C  12,H  25)          109.1068         0.328560   
     91. A(C   6,C  12,H  25)          110.3045         0.325920   
     92. A(C  17,C  12,H  26)          108.9491         0.328444   
     93. A(C   6,C  13,C  15)          121.0528         0.435093   
     94. A(C  15,C  13,H  27)          119.2437         0.355384   
     95. A(C   6,C  13,H  27)          119.7025         0.353689   
     96. A(C  10,C  14,H  28)          118.8782         0.354898   
     97. A(C   9,C  14,H  28)          120.7875         0.355817   
     98. A(C   9,C  14,C  10)          120.3339         0.436144   
     99. A(C  13,C  15,H  29)          121.0697         0.355799   
    100. A(C   8,C  15,H  29)          118.1554         0.354147   
    101. A(C   8,C  15,C  13)          120.7686         0.435153   
    102. A(C  11,C  16,C  18)          125.1562         0.419169   
    103. A(C  18,C  16,H  30)          119.2093         0.367473   
    104. A(C  11,C  16,H  30)          115.6332         0.329465   
    105. A(C  12,C  17,C  19)          125.2446         0.420640   
    106. A(C  19,C  17,H  31)          119.2192         0.367958   
    107. A(C  12,C  17,H  31)          115.5349         0.329967   
    108. A(H  34,C  18,H  35)          116.7661         0.292815   
    109. A(C  16,C  18,H  35)          121.5907         0.367823   
    110. A(C  16,C  18,H  34)          121.6301         0.368496   
    111. A(H  36,C  19,H  37)          116.7732         0.292851   
    112. A(C  17,C  19,H  37)          121.5828         0.368531   
    113. A(C  17,C  19,H  36)          121.6435         0.368983   
    114. A(O   0,H  32,O  45)          151.8639         0.183450   
    115. A(H  38,C  40,C  43)          113.1239         0.323866   
    116. A(O  44,C  40,H  46)          108.6003         0.335516   
    117. A(H  38,C  40,H  46)          110.0268         0.291047   
    118. A(C  43,C  40,H  46)          113.0938         0.324573   
    119. A(C  43,C  40,O  44)          103.1275         0.375558   
    120. A(H  38,C  40,O  44)          108.4768         0.334777   
    121. A(C  42,O  41,C  43)          109.8006         0.410975   
    122. A(O  44,C  42,O  45)          124.4356         0.483287   
    123. A(O  41,C  42,O  45)          124.7732         0.483847   
    124. A(O  41,C  42,O  44)          110.7888         0.434977   
    125. A(O  41,C  43,H  47)          108.6788         0.334742   
    126. A(C  40,C  43,H  47)          112.3804         0.324090   
    127. A(H  39,C  43,H  47)          110.1982         0.291176   
    128. A(C  40,C  43,O  41)          103.0067         0.375244   
    129. A(H  39,C  43,O  41)          108.4706         0.335168   
    130. A(H  39,C  43,C  40)          113.7024         0.324498   
    131. A(C  40,O  44,C  42)          109.9375         0.410871   
    132. A(H  32,O  45,C  42)          143.2065         0.221489   
    133. D(C   9,C   3,C   2,C   7)    122.6959         0.013143   
    134. D(C   5,C   3,C   2,C   7)    -55.5862         0.013143   
    135. D(C   9,C   3,C   2,C   8)    -56.7168         0.013143   
    136. D(C   5,C   3,C   2,C   8)    125.0011         0.013143   
    137. D(H  20,C   5,C   4,C  11)     -1.1552         0.026341   
    138. D(H  20,C   5,C   3,C   2)     -2.4866         0.025642   
    139. D(C   3,C   5,C   4,C  11)    177.1253         0.026341   
    140. D(C   3,C   5,C   4,C  10)     -0.9345         0.026341   
    141. D(H  20,C   5,C   3,C   9)    179.1723         0.025642   
    142. D(H  20,C   5,C   4,C  10)   -179.2150         0.026341   
    143. D(C   4,C   5,C   3,C   2)    179.2357         0.025642   
    144. D(C   4,C   5,C   3,C   9)      0.8945         0.025642   
    145. D(C   6,C   7,C   2,C   8)      1.6205         0.025528   
    146. D(H  21,C   7,C   2,C   3)      0.7854         0.025528   
    147. D(C   6,C   7,C   2,C   3)   -177.8137         0.025528   
    148. D(H  21,C   7,C   6,C  13)   -178.8871         0.026491   
    149. D(H  21,C   7,C   6,C  12)      0.6974         0.026491   
    150. D(C   2,C   7,C   6,C  12)    179.2822         0.026491   
    151. D(H  21,C   7,C   2,C   8)   -179.7805         0.025528   
    152. D(C   2,C   7,C   6,C  13)     -0.3022         0.026491   
    153. D(C  15,C   8,O   0,H  32)    162.2029         0.029065   
    154. D(C  15,C   8,C   2,C   7)     -1.8535         0.023509   
    155. D(O   0,C   8,C   2,C   7)    178.1143         0.023509   
    156. D(C  15,C   8,C   2,C   3)    177.5686         0.023509   
    157. D(O   0,C   8,C   2,C   3)     -2.4636         0.023509   
    158. D(C   2,C   8,O   0,H  32)    -17.7658         0.029065   
    159. D(H  22,C   9,C   3,C   5)    179.3026         0.025444   
    160. D(C  14,C   9,C   3,C   5)      0.0748         0.025444   
    161. D(H  22,C   9,C   3,C   2)      0.9655         0.025444   
    162. D(C  14,C   9,C   3,C   2)   -178.2622         0.025444   
    163. D(C   4,C  10,O   1,H  33)     25.0538         0.028217   
    164. D(C  14,C  10,C   4,C  11)   -178.0410         0.024599   
    165. D(C  14,C  10,C   4,C   5)      0.0076         0.024599   
    166. D(O   1,C  10,C   4,C  11)     -0.5505         0.024599   
    167. D(O   1,C  10,C   4,C   5)    177.4980         0.024599   
    168. D(C  14,C  10,O   1,H  33)   -157.3792         0.028217   
    169. D(H  24,C  11,C   4,C   5)      0.9372         0.011509   
    170. D(H  23,C  11,C   4,C  10)     63.0469         0.011509   
    171. D(H  23,C  11,C   4,C   5)   -114.9480         0.011509   
    172. D(C  16,C  11,C   4,C  10)    -60.1624         0.011509   
    173. D(C  16,C  11,C   4,C   5)    121.8427         0.011509   
    174. D(H  26,C  12,C   6,C   7)   -173.7943         0.011392   
    175. D(H  25,C  12,C   6,C  13)    122.0283         0.011392   
    176. D(H  25,C  12,C   6,C   7)    -57.5397         0.011392   
    177. D(C  17,C  12,C   6,C  13)   -115.2673         0.011392   
    178. D(C  17,C  12,C   6,C   7)     65.1646         0.011392   
    179. D(H  27,C  13,C   6,C  12)     -0.0092         0.026178   
    180. D(H  27,C  13,C   6,C   7)    179.5722         0.026178   
    181. D(C  15,C  13,C   6,C  12)    179.6265         0.026178   
    182. D(C  15,C  13,C   6,C   7)     -0.7921         0.026178   
    183. D(H  28,C  14,C  10,C   4)   -178.8279         0.026920   
    184. D(H  28,C  14,C  10,O   1)      3.5538         0.026920   
    185. D(C   9,C  14,C  10,C   4)      0.9268         0.026920   
    186. D(C   9,C  14,C  10,O   1)   -176.6914         0.026920   
    187. D(H  28,C  14,C   9,H  22)     -0.4508         0.027807   
    188. D(H  28,C  14,C   9,C   3)    178.7790         0.027807   
    189. D(C  10,C  14,C   9,H  22)    179.7992         0.027807   
    190. D(C  10,C  14,C   9,C   3)     -0.9710         0.027807   
    191. D(C   8,C  15,C  13,C   6)      0.5267         0.027794   
    192. D(H  29,C  15,C   8,C   2)    179.9277         0.026220   
    193. D(H  29,C  15,C   8,O   0)     -0.0425         0.026220   
    194. D(C  13,C  15,C   8,C   2)      0.8325         0.026220   
    195. D(C  13,C  15,C   8,O   0)   -179.1377         0.026220   
    196. D(H  29,C  15,C  13,H  27)      1.0953         0.027794   
    197. D(H  29,C  15,C  13,C   6)   -178.5420         0.027794   
    198. D(C   8,C  15,C  13,H  27)   -179.8360         0.027794   
    199. D(H  30,C  16,C  11,H  23)   -178.0045         0.012258   
    200. D(H  30,C  16,C  11,C   4)    -54.2766         0.012258   
    201. D(C  18,C  16,C  11,H  24)   -114.1982         0.012258   
    202. D(C  18,C  16,C  11,H  23)      1.5840         0.012258   
    203. D(C  18,C  16,C  11,C   4)    125.3119         0.012258   
    204. D(H  31,C  17,C  12,H  25)    179.9490         0.012510   
    205. D(H  31,C  17,C  12,C   6)     56.5849         0.012510   
    206. D(C  19,C  17,C  12,H  26)    116.3331         0.012510   
    207. D(C  19,C  17,C  12,H  25)      0.3699         0.012510   
    208. D(C  19,C  17,C  12,C   6)   -122.9942         0.012510   
    209. D(H  35,C  18,C  16,H  30)   -179.4166         0.043452   
    210. D(H  35,C  18,C  16,C  11)      1.0084         0.043452   
    211. D(H  34,C  18,C  16,H  30)     -0.7736         0.043452   
    212. D(H  34,C  18,C  16,C  11)    179.6514         0.043452   
    213. D(H  37,C  19,C  17,H  31)   -179.6667         0.044330   
    214. D(H  37,C  19,C  17,C  12)     -0.1018         0.044330   
    215. D(H  36,C  19,C  17,H  31)      0.6039         0.044330   
    216. D(H  36,C  19,C  17,C  12)   -179.8312         0.044330   
    217. D(O  45,H  32,O   0,C   8)   -157.5163         0.275003   
    218. D(O  45,C  42,O  41,C  43)   -172.5429         0.031104   
    219. D(O  44,C  42,O  41,C  43)      7.9995         0.031104   
    220. D(H  47,C  43,O  41,C  42)    103.2812         0.017360   
    221. D(H  39,C  43,O  41,C  42)   -136.9049         0.017360   
    222. D(O  41,C  43,C  40,H  46)    134.8196         0.011057   
    223. D(O  41,C  43,C  40,O  44)     17.7224         0.011057   
    224. D(O  41,C  43,C  40,H  38)    -99.2425         0.011057   
    225. D(H  39,C  43,C  40,H  46)   -108.0173         0.011057   
    226. D(C  40,C  43,O  41,C  42)    -16.0987         0.017360   
    227. D(H  39,C  43,C  40,O  44)    134.8855         0.011057   
    228. D(H  39,C  43,C  40,H  38)     17.9206         0.011057   
    229. D(C  40,O  44,C  42,O  45)   -174.8435         0.030685   
    230. D(C  40,O  44,C  42,O  41)      4.6162         0.030685   
    231. D(C  42,O  44,C  40,H  46)   -134.3631         0.017532   
    232. D(C  42,O  44,C  40,C  43)    -14.1348         0.017532   
    233. D(C  42,O  44,C  40,H  38)    106.0708         0.017532   
    234. D(H  32,O  45,C  42,O  44)   -116.4007         0.114779   
    235. D(H  32,O  45,C  42,O  41)     64.2142         0.114779   
    236. D(C  42,O  45,H  32,O   0)   -141.5950         0.001546   
    -----------------------------------------------------------------

Number of atoms                         .... 48
Number of degrees of freedom            .... 236


         *************************************************************
         *                GEOMETRY OPTIMIZATION CYCLE   1            *
         *************************************************************
---------------------------------
CARTESIAN COORDINATES (ANGSTROEM)
---------------------------------
  O      1.053465    1.488401    2.344925
  O     -3.847743   -2.492048    1.799546
  C      1.046767   -0.002078    0.409611
  C     -0.243732   -0.647817    0.765007
  C     -2.533399   -1.267902    0.158081
  C     -1.314005   -0.659548   -0.132463
  C      2.957939    0.140164   -1.116219
  C      1.724573   -0.391844   -0.748555
  C      1.626636    0.995634    1.216394
  C     -0.417450   -1.294282    1.992104
  C     -2.670301   -1.907063    1.398564
  C     -3.686914   -1.198167   -0.822917
  C      3.662498   -0.327529   -2.376035
  C      3.519823    1.105937   -0.282420
  C     -1.612747   -1.925005    2.301293
  C      2.863760    1.531640    0.862422
  C     -4.191722   -2.545814   -1.269800
  C      2.920900    0.017800   -3.638092
  C     -5.453607   -2.958301   -1.183533
  C      2.522515   -0.855132   -4.556060
  H     -1.201983   -0.151438   -1.083654
  H      1.273910   -1.157890   -1.369984
  H      0.395060   -1.314703    2.707205
  H     -4.516312   -0.626560   -0.391779
  H     -3.350141   -0.640292   -1.701234
  H      3.825382   -1.409285   -2.340793
  H      4.653932    0.136465   -2.407871
  H      4.482488    1.537753   -0.532891
  H     -1.738795   -2.441956    3.243995
  H      3.288874    2.298293    1.497546
  H     -3.442185   -3.214657   -1.685297
  H      2.702066    1.073638   -3.779231
  H      0.102950    1.299466    2.402355
  H     -4.370763   -2.742279    1.023316
  H     -5.755116   -3.939347   -1.528299
  H     -6.234781   -2.319117   -0.783880
  H      1.993180   -0.540857   -5.447162
  H      2.715582   -1.917688   -4.451450
  H     -5.588937    1.401901    4.148072
  H     -4.529861   -0.131857    5.687107
  C     -4.980189    0.634155    3.667777
  O     -2.863575    0.400159    4.599499
  C     -2.767003    1.168814    3.494242
  C     -4.168798   -0.199759    4.663059
  O     -3.966669    1.282015    2.882400
  O     -1.763543    1.687685    3.112206
  H     -5.596905    0.029013    3.007260
  H     -4.088148   -1.243969    4.360888

----------------------------
CARTESIAN COORDINATES (A.U.)
----------------------------
  NO LB      ZA    FRAG     MASS         X           Y           Z
   0 O     8.0000    0    15.999    1.990760    2.812671    4.431266
   1 O     8.0000    0    15.999   -7.271180   -4.709288    3.400649
   2 C     6.0000    0    12.011    1.978103   -0.003927    0.774052
   3 C     6.0000    0    12.011   -0.460587   -1.224197    1.445654
   4 C     6.0000    0    12.011   -4.787430   -2.395988    0.298729
   5 C     6.0000    0    12.011   -2.483110   -1.246365   -0.250319
   6 C     6.0000    0    12.011    5.589694    0.264872   -2.109347
   7 C     6.0000    0    12.011    3.258970   -0.740478   -1.414564
   8 C     6.0000    0    12.011    3.073897    1.881476    2.298652
   9 C     6.0000    0    12.011   -0.788867   -2.445839    3.764530
  10 C     6.0000    0    12.011   -5.046138   -3.603828    2.642902
  11 C     6.0000    0    12.011   -6.967258   -2.264208   -1.555087
  12 C     6.0000    0    12.011    6.921117   -0.618940   -4.490056
  13 C     6.0000    0    12.011    6.651501    2.089919   -0.533697
  14 C     6.0000    0    12.011   -3.047650   -3.637732    4.348814
  15 C     6.0000    0    12.011    5.411723    2.894379    1.629741
  16 C     6.0000    0    12.011   -7.921207   -4.810892   -2.399575
  17 C     6.0000    0    12.011    5.519700    0.033638   -6.874998
  18 C     6.0000    0    12.011  -10.305823   -5.590379   -2.236553
  19 C     6.0000    0    12.011    4.766863   -1.615966   -8.609705
  20 H     1.0000    0     1.008   -2.271419   -0.286177   -2.047809
  21 H     1.0000    0     1.008    2.407341   -2.188095   -2.588894
  22 H     1.0000    0     1.008    0.746554   -2.484429    5.115876
  23 H     1.0000    0     1.008   -8.534593   -1.184027   -0.740356
  24 H     1.0000    0     1.008   -6.330850   -1.209977   -3.214866
  25 H     1.0000    0     1.008    7.228924   -2.663163   -4.423458
  26 H     1.0000    0     1.008    8.794657    0.257882   -4.550216
  27 H     1.0000    0     1.008    8.470676    2.905932   -1.007017
  28 H     1.0000    0     1.008   -3.285845   -4.614629    6.130263
  29 H     1.0000    0     1.008    6.215072    4.343144    2.829952
  30 H     1.0000    0     1.008   -6.504788   -6.074822   -3.184749
  31 H     1.0000    0     1.008    5.106164    2.028881   -7.141712
  32 H     1.0000    0     1.008    0.194548    2.455634    4.539794
  33 H     1.0000    0     1.008   -8.259544   -5.182156    1.933788
  34 H     1.0000    0     1.008  -10.875593   -7.444286   -2.888067
  35 H     1.0000    0     1.008  -11.782028   -4.382496   -1.481319
  36 H     1.0000    0     1.008    3.766564   -1.022072  -10.293644
  37 H     1.0000    0     1.008    5.131706   -3.623905   -8.412022
  38 H     1.0000    0     1.008  -10.561561    2.649209    7.838720
  39 H     1.0000    0     1.008   -8.560197   -0.249175   10.747075
  40 C     6.0000    0    12.011   -9.411194    1.198379    6.931095
  41 O     8.0000    0    15.999   -5.411373    0.756191    8.691794
  42 C     6.0000    0    12.011   -5.228878    2.208738    6.603161
  43 C     6.0000    0    12.011   -7.877887   -0.377490    8.811904
  44 O     8.0000    0    15.999   -7.495917    2.422658    5.446947
  45 O     8.0000    0    15.999   -3.332613    3.189263    5.881216
  46 H     1.0000    0     1.008  -10.576617    0.054826    5.682899
  47 H     1.0000    0     1.008   -7.725480   -2.350761    8.240885

--------------------------------
INTERNAL COORDINATES (ANGSTROEM)
--------------------------------
 O      0   0   0     0.000000000000     0.00000000     0.00000000
 O      1   0   0     6.337448389804     0.00000000     0.00000000
 C      1   2   0     2.442747306089    63.02925571     0.00000000
 C      3   1   2     1.486160897683    94.47577358     0.51228632
 C      2   1   3     2.433195412293    47.49229031   324.13922437
 C      5   2   1     1.393352617142   146.41472547    24.79243661
 C      3   1   2     2.449686969266   117.12349267   181.36117462
 C      7   3   1     1.392624116093    28.64878886   182.00351829
 C      1   2   3     1.358280699630    91.54651496   358.75281300
 C      4   3   1     1.397805715719   121.25179687   302.14444103
 C      2   1   3     1.374540600119    25.22042285   357.50348042
 C      5   2   1     1.515855209792    92.78984276   208.31810344
 C      7   3   1     1.517325960025   149.48844471   180.78969279
 C      7   3   1     1.394148983098    88.97651644     1.73570759
 C     10   4   3     1.386413620735   120.88552061   181.73775128
 C     14   7   3     1.386471756759   121.05279419   359.06299805
 C     12   5   2     1.506880235042   113.93533153   299.57472414
 C     13   7   3     1.503997095451   113.39014461    65.84240054
 C     17  12   5     1.330390842337   125.15621335   125.31194161
 C     18  13   7     1.327925764043   125.24462372   237.00576341
 H      6   5   2     1.084199537082   118.55360472   182.94224497
 H      8   7   3     1.084480019520   119.11731147   181.41514604
 H     10   4   3     1.082570586935   119.69180970     0.96549230
 H     12   5   2     1.095680138690   110.20501264    62.78403453
 H     12   5   2     1.093654951700   107.99135244   178.66925903
 H     13   7   3     1.094517858625   110.30451810   303.13803545
 H     13   7   3     1.095101184183   108.29585311   186.88349140
 H     14   7   3     1.084400828987   119.70252653   179.42731335
 H     15  10   4     1.082503583068   120.78747491   178.77902943
 H     16  14   7     1.082525513450   121.06973355   181.45797400
 H     17  12   5     1.087103345012   115.63319823   305.72342066
 H     18  13   7     1.087474750028   115.53486197    56.58494083
 H      1   2   3     0.970810764073    29.03198966   138.11130254
 H      2   1   3     0.968864104171   130.43998845   317.44098062
 H     19  17  12     1.082691818558   121.63013187   179.65139688
 H     19  17  12     1.085593004594   121.59068110     1.00843351
 H     20  18  13     1.083063665298   121.64346999   180.16883652
 H     20  18  13     1.085007886617   121.58284191   359.89824135
 H      2   1   3     4.869308999635    74.50031107   209.44556162
 H     39   2   1     2.417165128127    69.08336425   275.77114362
 C     39   2   1     1.091188198272    12.98339635   348.37533541
 O     40  39   2     2.059718741815    81.62527708    65.07918249
 C     42  40  39     1.349721753038   129.59654755   354.29946315
 C     40  39   2     1.087957630779    65.52493605    25.00628360
 O     43  42  40     1.351429966055   110.78880917   341.62668365
 O     43  42  40     1.192523567661   124.77320347   161.08425594
 H     41  39  45     1.087573949572   110.02682466   241.33153954
 H     44  40  39     1.090039110606   110.19824021   224.73200613

---------------------------
INTERNAL COORDINATES (A.U.)
---------------------------
 O      0   0   0     0.000000000000     0.00000000     0.00000000
 O      1   0   0    11.976041844590     0.00000000     0.00000000
 C      1   2   0     4.616123422882    63.02925571     0.00000000
 C      3   1   2     2.808437087564    94.47577358     0.51228632
 C      2   1   3     4.598072959548    47.49229031   324.13922437
 C      5   2   1     2.633054854381   146.41472547    24.79243661
 C      3   1   2     4.629237485748   117.12349267   181.36117462
 C      7   3   1     2.631678186910    28.64878886   182.00351829
 C      1   2   3     2.566778535291    91.54651496   358.75281300
 C      4   3   1     2.641469991138   121.25179687   302.14444103
 C      2   1   3     2.597505294180    25.22042285   357.50348042
 C      5   2   1     2.864551205184    92.78984276   208.31810344
 C      7   3   1     2.867330520337   149.48844471   180.78969279
 C      7   3   1     2.634559767941    88.97651644     1.73570759
 C     10   4   3     2.619942051528   120.88552061   181.73775128
 C     14   7   3     2.620051912691   121.05279419   359.06299805
 C     12   5   2     2.847590960848   113.93533153   299.57472414
 C     13   7   3     2.842142616615   113.39014461    65.84240054
 C     17  12   5     2.514074343094   125.15621335   125.31194161
 C     18  13   7     2.509416020220   125.24462372   237.00576341
 H      6   5   2     2.048840199610   118.55360472   182.94224497
 H      8   7   3     2.049370234602   119.11731147   181.41514604
 H     10   4   3     2.045761929946   119.69180970     0.96549230
 H     12   5   2     2.070535392502   110.20501264    62.78403453
 H     12   5   2     2.066708343720   107.99135244   178.66925903
 H     13   7   3     2.068339001488   110.30451810   303.13803545
 H     13   7   3     2.069441327040   108.29585311   186.88349140
 H     14   7   3     2.049220586182   119.70252653   179.42731335
 H     15  10   4     2.045635310988   120.78747491   178.77902943
 H     16  14   7     2.045676753402   121.06973355   181.45797400
 H     17  12   5     2.054327601343   115.63319823   305.72342066
 H     18  13   7     2.055029455107   115.53486197    56.58494083
 H      1   2   3     1.834566471960    29.03198966   138.11130254
 H      2   1   3     1.830887817871   130.43998845   317.44098062
 H     19  17  12     2.045991024511   121.63013187   179.65139688
 H     19  17  12     2.051473471582   121.59068110     1.00843351
 H     20  18  13     2.046693713015   121.64346999   180.16883652
 H     20  18  13     2.050367758850   121.58284191   359.89824135
 H      2   1   3     9.201660470747    74.50031107   209.44556162
 H     39   2   1     4.567780112624    69.08336425   275.77114362
 C     39   2   1     2.062046855300    12.98339635   348.37533541
 O     40  39   2     3.892304334935    81.62527708    65.07918249
 C     42  40  39     2.550604470239   129.59654755   354.29946315
 C     40  39   2     2.055941967482    65.52493605    25.00628360
 O     43  42  40     2.553832525018   110.78880917   341.62668365
 O     43  42  40     2.253542951125   124.77320347   161.08425594
 H     41  39  45     2.055216915079   110.02682466   241.33153954
 H     44  40  39     2.059875394308   110.19824021   224.73200613

---------------------
BASIS SET INFORMATION
---------------------
There are 3 groups of distinct atoms

 Group   1 Type O   : 11s6p2d1f contracted to 5s3p2d1f pattern {62111/411/11/1}
 Group   2 Type C   : 11s6p2d1f contracted to 5s3p2d1f pattern {62111/411/11/1}
 Group   3 Type H   : 5s1p contracted to 3s1p pattern {311/1}

Atom   0O    basis set group =>   1
Atom   1O    basis set group =>   1
Atom   2C    basis set group =>   2
Atom   3C    basis set group =>   2
Atom   4C    basis set group =>   2
Atom   5C    basis set group =>   2
Atom   6C    basis set group =>   2
Atom   7C    basis set group =>   2
Atom   8C    basis set group =>   2
Atom   9C    basis set group =>   2
Atom  10C    basis set group =>   2
Atom  11C    basis set group =>   2
Atom  12C    basis set group =>   2
Atom  13C    basis set group =>   2
Atom  14C    basis set group =>   2
Atom  15C    basis set group =>   2
Atom  16C    basis set group =>   2
Atom  17C    basis set group =>   2
Atom  18C    basis set group =>   2
Atom  19C    basis set group =>   2
Atom  20H    basis set group =>   3
Atom  21H    basis set group =>   3
Atom  22H    basis set group =>   3
Atom  23H    basis set group =>   3
Atom  24H    basis set group =>   3
Atom  25H    basis set group =>   3
Atom  26H    basis set group =>   3
Atom  27H    basis set group =>   3
Atom  28H    basis set group =>   3
Atom  29H    basis set group =>   3
Atom  30H    basis set group =>   3
Atom  31H    basis set group =>   3
Atom  32H    basis set group =>   3
Atom  33H    basis set group =>   3
Atom  34H    basis set group =>   3
Atom  35H    basis set group =>   3
Atom  36H    basis set group =>   3
Atom  37H    basis set group =>   3
Atom  38H    basis set group =>   3
Atom  39H    basis set group =>   3
Atom  40C    basis set group =>   2
Atom  41O    basis set group =>   1
Atom  42C    basis set group =>   2
Atom  43C    basis set group =>   2
Atom  44O    basis set group =>   1
Atom  45O    basis set group =>   1
Atom  46H    basis set group =>   3
Atom  47H    basis set group =>   3
---------------------------------
AUXILIARY/J BASIS SET INFORMATION
---------------------------------
There are 3 groups of distinct atoms

 Group   1 Type O   : 12s5p4d2f1g contracted to 6s4p3d1f1g pattern {711111/2111/211/2/1}
 Group   2 Type C   : 12s5p4d2f1g contracted to 6s4p3d1f1g pattern {711111/2111/211/2/1}
 Group   3 Type H   : 5s2p1d contracted to 3s1p1d pattern {311/2/1}

Atom   0O    basis set group =>   1
Atom   1O    basis set group =>   1
Atom   2C    basis set group =>   2
Atom   3C    basis set group =>   2
Atom   4C    basis set group =>   2
Atom   5C    basis set group =>   2
Atom   6C    basis set group =>   2
Atom   7C    basis set group =>   2
Atom   8C    basis set group =>   2
Atom   9C    basis set group =>   2
Atom  10C    basis set group =>   2
Atom  11C    basis set group =>   2
Atom  12C    basis set group =>   2
Atom  13C    basis set group =>   2
Atom  14C    basis set group =>   2
Atom  15C    basis set group =>   2
Atom  16C    basis set group =>   2
Atom  17C    basis set group =>   2
Atom  18C    basis set group =>   2
Atom  19C    basis set group =>   2
Atom  20H    basis set group =>   3
Atom  21H    basis set group =>   3
Atom  22H    basis set group =>   3
Atom  23H    basis set group =>   3
Atom  24H    basis set group =>   3
Atom  25H    basis set group =>   3
Atom  26H    basis set group =>   3
Atom  27H    basis set group =>   3
Atom  28H    basis set group =>   3
Atom  29H    basis set group =>   3
Atom  30H    basis set group =>   3
Atom  31H    basis set group =>   3
Atom  32H    basis set group =>   3
Atom  33H    basis set group =>   3
Atom  34H    basis set group =>   3
Atom  35H    basis set group =>   3
Atom  36H    basis set group =>   3
Atom  37H    basis set group =>   3
Atom  38H    basis set group =>   3
Atom  39H    basis set group =>   3
Atom  40C    basis set group =>   2
Atom  41O    basis set group =>   1
Atom  42C    basis set group =>   2
Atom  43C    basis set group =>   2
Atom  44O    basis set group =>   1
Atom  45O    basis set group =>   1
Atom  46H    basis set group =>   3
Atom  47H    basis set group =>   3
--------------------------------------------------------------------------
WARNING: There was an error initializing an OpenFabrics device.

  Local host:   ga01
  Local device: mlx5_0
--------------------------------------------------------------------------


           ************************************************************
           *        Program running with 20 parallel MPI-processes    *
           *              working on a common directory               *
           ************************************************************
------------------------------------------------------------------------------
                             ORCA STARTUP CALCULATIONS
                           -- RI-GTO INTEGRALS CHOSEN --
------------------------------------------------------------------------------
------------------------------------------------------------------------------
                   ___                                                        
                  /   \      - P O W E R E D   B Y -                         
                 /     \                                                     
                 |  |  |   _    _      __       _____    __    __             
                 |  |  |  | |  | |    /  \     |  _  \  |  |  /  |          
                  \  \/   | |  | |   /    \    | | | |  |  | /  /          
                 / \  \   | |__| |  /  /\  \   | |_| |  |  |/  /          
                |  |  |   |  __  | /  /__\  \  |    /   |      \           
                |  |  |   | |  | | |   __   |  |    \   |  |\   \          
                \     /   | |  | | |  |  |  |  | |\  \  |  | \   \       
                 \___/    |_|  |_| |__|  |__|  |_| \__\ |__|  \__/        
                                                                              
                      - O R C A' S   B I G   F R I E N D -                    
                                      &                                       
                       - I N T E G R A L  F E E D E R -                       
                                                                              
 v1 FN, 2020, v2 2021, v3 2022-2024                                           
------------------------------------------------------------------------------


----------------------
SHARK INTEGRAL PACKAGE
----------------------

Number of atoms                             ...     48
Number of basis functions                   ...    938
Number of shells                            ...    374
Maximum angular momentum                    ...      3
Integral batch strategy                     ... SHARK/LIBINT Hybrid
RI-J (if used) integral strategy            ... SPLIT-RIJ (Revised 2003 algorithm where possible)
Printlevel                                  ...      1
Contraction scheme used                     ... SEGMENTED contraction
Prescreening option                         ... SCHWARTZ
   Thresh                                   ... 2.500e-11
   Tcut                                     ... 2.500e-12
   Tpresel                                  ... 2.500e-12 
Coulomb Range Separation                    ... NOT USED
Exchange Range Separation                   ... NOT USED
Multipole approximations                    ... NOT USED
Finite Nucleus Model                        ... NOT USED
CABS basis                                  ... NOT available
Auxiliary Coulomb fitting basis             ... AVAILABLE
   # of basis functions in Aux-J            ...   1516
   # of shells in Aux-J                     ...    500
   Maximum angular momentum in Aux-J        ...      4
Auxiliary J/K fitting basis                 ... NOT available
Auxiliary Correlation fitting basis         ... NOT available
Auxiliary 'external' fitting basis          ... NOT available

Checking pre-screening integrals            ... done (  0.0 sec) Dimension = 374
Check shell pair data                       ... done (  0.0 sec)
Shell pair information
Shell pair cut-off parameter TPreSel        ...   2.5e-12
Total number of shell pairs                 ...     70125
Shell pairs after pre-screening             ...     44116
Total number of primitive shell pairs       ...    213516
Primitive shell pairs kept                  ...     87372
          la=0 lb=0:  11744 shell pairs
          la=1 lb=0:  12952 shell pairs
          la=1 lb=1:   3601 shell pairs
          la=2 lb=0:   6124 shell pairs
          la=2 lb=1:   3456 shell pairs
          la=2 lb=2:    839 shell pairs
          la=3 lb=0:   2830 shell pairs
          la=3 lb=1:   1635 shell pairs
          la=3 lb=2:    746 shell pairs
          la=3 lb=3:    189 shell pairs

Calculating one electron integrals          ... done (  0.1 sec)
Calculating RI/J V-Matrix + Cholesky decomp.... done (  0.2 sec)
Calculating Nuclear repulsion               ... done (  0.0 sec) ENN=   2272.714720741187 Eh

Diagonalization of the overlap matrix:
Smallest eigenvalue                        ... 5.688e-06
Time for diagonalization                   ...    0.130 sec
Threshold for overlap eigenvalues          ... 1.000e-07
Number of eigenvalues below threshold      ... 0
Time for construction of square roots      ...    0.073 sec
Total time needed                          ...    0.211 sec

-------------------
DFT GRID GENERATION
-------------------

General Integration Accuracy     IntAcc      ... 4.388
Radial Grid Type                 RadialGrid  ... OptM3 with GC (2021)
Angular Grid (max. ang.)         AngularGrid ... 4 (Lebedev-302)
Angular grid pruning method      GridPruning ... 4 (adaptive)
Weight generation scheme         WeightScheme... mBecke (2022)
Basis function cutoff            BFCut       ... 1.0000e-11
Integration weight cutoff        WCut        ... 1.0000e-14
Partially contracted basis set               ... off
Rotationally invariant grid construction     ... off
Angular grids for H and He will be reduced by one unit

Total number of grid points                  ...   225613
Total number of batches                      ...     3550
Average number of points per batch           ...       63
Average number of grid points per atom       ...     4700

--------------------
COSX GRID GENERATION
--------------------

GRIDX 1
-------
General Integration Accuracy     IntAcc      ... 3.816
Radial Grid Type                 RadialGrid  ... OptM3 with GC (2021)
Angular Grid (max. ang.)         AngularGrid ... 1 (Lebedev-50)
Angular grid pruning method      GridPruning ... 4 (adaptive)
Weight generation scheme         WeightScheme... mBecke (2022)
Basis function cutoff            BFCut       ... 1.0000e-11
Integration weight cutoff        WCut        ... 1.0000e-14
Partially contracted basis set               ... on
Rotationally invariant grid construction     ... off
Angular grids for H and He will be reduced by one unit

Total number of grid points                  ...    28621
Total number of batches                      ...      255
Average number of points per batch           ...      112
Average number of grid points per atom       ...      596
UseSFitting                                  ... on

GRIDX 2
-------
General Integration Accuracy     IntAcc      ... 4.020
Radial Grid Type                 RadialGrid  ... OptM3 with GC (2021)
Angular Grid (max. ang.)         AngularGrid ... 2 (Lebedev-110)
Angular grid pruning method      GridPruning ... 4 (adaptive)
Weight generation scheme         WeightScheme... mBecke (2022)
Basis function cutoff            BFCut       ... 1.0000e-11
Integration weight cutoff        WCut        ... 1.0000e-14
Partially contracted basis set               ... on
Rotationally invariant grid construction     ... off
Angular grids for H and He will be reduced by one unit

Total number of grid points                  ...    61776
Total number of batches                      ...      511
Average number of points per batch           ...      120
Average number of grid points per atom       ...     1287
UseSFitting                                  ... on

GRIDX 3
-------
General Integration Accuracy     IntAcc      ... 4.338
Radial Grid Type                 RadialGrid  ... OptM3 with GC (2021)
Angular Grid (max. ang.)         AngularGrid ... 3 (Lebedev-194)
Angular grid pruning method      GridPruning ... 4 (adaptive)
Weight generation scheme         WeightScheme... mBecke (2022)
Basis function cutoff            BFCut       ... 1.0000e-11
Integration weight cutoff        WCut        ... 1.0000e-14
Partially contracted basis set               ... on
Rotationally invariant grid construction     ... off
Angular grids for H and He will be reduced by one unit

Total number of grid points                  ...   134921
Total number of batches                      ...     1077
Average number of points per batch           ...      125
Average number of grid points per atom       ...     2811
UseSFitting                                  ... on
Initializing property integral containers    ... done (  0.0 sec)

SHARK setup successfully completed in   3.3 seconds

Maximum memory used throughout the entire STARTUP-calculation: 98.3 MB
[ga01:952425] 19 more processes have sent help message help-mpi-btl-openib.txt / error in device init
[ga01:952425] Set MCA parameter "orte_base_help_aggregate" to 0 to see all help / error messages
--------------------------------------------------------------------------
WARNING: There was an error initializing an OpenFabrics device.

  Local host:   ga01
  Local device: mlx5_0
--------------------------------------------------------------------------


           ************************************************************
           *        Program running with 20 parallel MPI-processes    *
           *              working on a common directory               *
           ************************************************************
-------------------------------------------------------------------------------
                                 ORCA GUESS
                   Start orbitals & Density for SCF / CASSCF
-------------------------------------------------------------------------------

------------
SCF SETTINGS
------------
Hamiltonian:
 Density Functional     Method          .... DFT(GTOs)
 Exchange Functional    Exchange        .... B88
   X-Alpha parameter    XAlpha          ....  0.666667
   Becke's b parameter  XBeta           ....  0.004200
 Correlation Functional Correlation     .... LYP
 LDA part of GGA corr.  LDAOpt          .... VWN-5
 Gradients option       PostSCFGGA      .... off
 Hybrid DFT is turned on
   Fraction HF Exchange ScalHFX         ....  0.200000
   Scaling of DF-GGA-X  ScalDFX         ....  0.720000
   Scaling of DF-GGA-C  ScalDFC         ....  0.810000
   Scaling of DF-LDA-C  ScalLDAC        ....  1.000000
   Perturbative correction              ....  0.000000
   NL short-range parameter             ....  4.800000
 RI-approximation to the Coulomb term is turned on
   Number of AuxJ basis functions       .... 1516
   RIJ-COSX (HFX calculated with COS-X)).... on


General Settings:
 Integral files         IntName         .... honokiol2-opt_EC_closer
 Hartree-Fock type      HFTyp           .... RHF
 Total Charge           Charge          ....    0
 Multiplicity           Mult            ....    1
 Number of Electrons    NEL             ....  188
 Basis Dimension        Dim             ....  938
 Nuclear Repulsion      ENuc            ....   2272.7147207412 Eh

Convergence Acceleration:
 AO-DIIS                CNVDIIS         .... on
   Start iteration      DIISMaxIt       ....    12
   Startup error        DIISStart       ....  0.200000
   # of expansion vecs  DIISMaxEq       ....     5
   Bias factor          DIISBfac        ....   1.050
   Max. coefficient     DIISMaxC        ....  10.000
 MO-DIIS                CNVKDIIS        .... off
 Trust-Rad. Augm. Hess. CNVTRAH         .... auto
   Auto Start mean grad. ratio tolernc. ....  1.125000
   Auto Start start iteration           ....    50
   Auto Start num. interpolation iter.  ....    10
   Max. Number of Micro iterations      ....    24
   Max. Number of Macro iterations      .... Maxiter - #DIIS iter
   Number of Davidson start vectors     ....     2
   Converg. threshold    (grad. norm)   ....   1.000e-05
   Grad. Scal. Fac. for Micro threshold ....   0.100
   Minimum threshold for Micro iter.    ....   1.000e-02
   NR start threshold (gradient norm)   ....   1.000e-04
   Initial trust radius                 ....   0.400
   Minimum AH scaling param. (alpha)    ....   1.000
   Maximum AH scaling param. (alpha)    .... 1000.000
   Quad. conv. algorithm                .... NR
   White noise on init. David. guess    .... on
   Maximum white noise                  ....   0.010
   Pseudo random numbers                .... off
   Inactive MOs                         .... canonical
   Orbital update algorithm             .... Taylor
   Preconditioner                       .... Diag
   Full preconditioner red. dimension   ....   250
 SOSCF                  CNVSOSCF        .... on
   Start iteration      SOSCFMaxIt      ....   150
   Startup grad/error   SOSCFStart      ....  0.003300
   Hessian update       SOSCFHessUp     .... L-BFGS
 Level Shifting         CNVShift        .... on
   Level shift para.    LevelShift      ....    0.2500
   Turn off err/grad.   ShiftErr        ....    0.0010
 Zerner damping         CNVZerner       .... off
 Static damping         CNVDamp         .... on
   Fraction old density DampFac         ....    0.7000
   Max. Damping (<1)    DampMax         ....    0.9800
   Min. Damping (>=0)   DampMin         ....    0.0000
   Turn off err/grad.   DampErr         ....    0.1000

SCF Procedure:
 Maximum # iterations   MaxIter         ....   125
 SCF integral mode      SCFMode         .... Direct
   Integral package                     .... SHARK and LIBINT hybrid scheme
 Reset frequency        DirectResetFreq ....    20
 Integral Threshold     Thresh          ....  2.500e-11 Eh
 Primitive CutOff       TCut            ....  2.500e-12 Eh

Convergence Tolerance:
 Convergence Check Mode ConvCheckMode   .... Total+1el-Energy
 Convergence forced     ConvForced      .... 0
 Energy Change          TolE            ....  1.000e-08 Eh
 1-El. energy change                    ....  1.000e-05 Eh
 Orbital Gradient       TolG            ....  1.000e-05
 Orbital Rotation angle TolX            ....  1.000e-05
 DIIS Error             TolErr          ....  5.000e-07

------------------------------
INITIAL GUESS: MODEL POTENTIAL
------------------------------
Loading Hartree-Fock densities                     ... done
Calculating cut-offs                               ... done
Initializing the effective Hamiltonian             ... done
Setting up the integral package (SHARK)            ... done
Starting the Coulomb interaction                   ... done (   0.2 sec)
Making the grid                                    ... done (   0.3 sec)
Mapping shells                                     ... done
Starting the XC term evaluation                    ... done (   0.1 sec)
  promolecular density results
     # of electrons  =    187.983191448
     EX              =   -155.548060186
     EC              =     -6.400478941
     EX+EC           =   -161.948539127
Transforming the Hamiltonian                       ... done (   0.1 sec)
Diagonalizing the Hamiltonian                      ... done (   0.1 sec)
Back transforming the eigenvectors                 ... done (   0.0 sec)
Now organizing SCF variables                       ... done
                      ------------------
                      INITIAL GUESS DONE (   0.9 sec)
                      ------------------
             **** ENERGY FILE WAS UPDATED (honokiol2-opt_EC_closer.en.tmp) ****
Finished Guess after   1.7 sec
Maximum memory used throughout the entire GUESS-calculation: 80.0 MB
[ga01:952510] 19 more processes have sent help message help-mpi-btl-openib.txt / error in device init
[ga01:952510] Set MCA parameter "orte_base_help_aggregate" to 0 to see all help / error messages
--------------------------------------------------------------------------
WARNING: There was an error initializing an OpenFabrics device.

  Local host:   ga01
  Local device: mlx5_0
--------------------------------------------------------------------------


           ************************************************************
           *        Program running with 20 parallel MPI-processes    *
           *              working on a common directory               *
           ************************************************************

-------------------------------------------------------------------------------------------
                                      ORCA LEAN-SCF
                              memory conserving SCF solver
-------------------------------------------------------------------------------------------

----------------------------------------D-I-I-S--------------------------------------------
Iteration    Energy (Eh)           Delta-E    RMSDP     MaxDP     DIISErr   Damp  Time(sec)
-------------------------------------------------------------------------------------------
               ***  Starting incremental Fock matrix formation  ***
[ga01:952602] 19 more processes have sent help message help-mpi-btl-openib.txt / error in device init
[ga01:952602] Set MCA parameter "orte_base_help_aggregate" to 0 to see all help / error messages
    1    -1188.6156032993549161     0.00e+00  1.30e-03  1.88e-01  2.94e-01  0.700   5.8
    2    -1188.9519767217911976    -3.36e-01  1.17e-03  2.01e-01  1.07e-01  0.700   3.5
                               ***Turning on AO-DIIS***
    3    -1189.0885373994428846    -1.37e-01  4.42e-04  5.80e-02  3.80e-02  0.700   3.3
    4    -1189.1700992213873178    -8.16e-02  6.40e-04  3.90e-02  1.91e-02  0.000   3.1
    5    -1189.3476572258969099    -1.78e-01  2.96e-04  5.25e-02  5.27e-03  0.000   3.2
                              *** Initializing SOSCF ***
---------------------------------------S-O-S-C-F--------------------------------------
Iteration    Energy (Eh)           Delta-E    RMSDP     MaxDP     MaxGrad    Time(sec)
--------------------------------------------------------------------------------------
    6    -1189.3485546795427581    -8.97e-04  1.05e-04  1.69e-02  1.77e-03     3.2
               *** Restarting incremental Fock matrix formation ***
    7    -1189.3485942259121657    -3.95e-05  7.67e-05  1.09e-02  2.36e-04     5.7
    8    -1189.3485872239712080     7.00e-06  1.34e-05  1.54e-03  4.87e-04     4.0
    9    -1189.3486017276791245    -1.45e-05  9.85e-06  8.74e-04  5.82e-05     3.6
   10    -1189.3486014243458158     3.03e-07  3.34e-06  3.36e-04  6.06e-05     3.4
   11    -1189.3486020775367251    -6.53e-07  2.26e-06  2.14e-04  1.43e-05     3.0
   12    -1189.3486020740415370     3.50e-09  1.25e-06  1.54e-04  2.18e-05     2.8
                 **** Energy Check signals convergence ****

               *****************************************************
               *                     SUCCESS                       *
               *           SCF CONVERGED AFTER  12 CYCLES          *
               *****************************************************

Recomputing exchange energy using gridx3       ... done (    8.840 sec)
Old exchange energy                            :    -31.593733657 Eh
New exchange energy                            :    -31.593732599 Eh
Exchange energy change after final integration :      0.000001058 Eh
Total energy after final integration           :  -1189.348601016 Eh
             **** ENERGY FILE WAS UPDATED (honokiol2-opt_EC_closer.en.tmp) ****

----------------
TOTAL SCF ENERGY
----------------

Total Energy       :      -1189.34860101589038 Eh          -32363.82078 eV

Components:
Nuclear Repulsion  :       2272.71472074118674 Eh           61843.71162 eV
Electronic Energy  :      -3462.06332281522828 Eh          -94207.53243 eV
One Electron Energy:      -6136.87935371710682 Eh         -166992.97697 eV
Two Electron Energy:       2674.81603090187855 Eh           72785.44454 eV

Virial components:
Potential Energy   :      -2373.50751128999946 Eh          -64586.42289 eV
Kinetic Energy     :       1184.15891027410908 Eh           32222.60211 eV
Virial Ratio       :          2.00438259653899

DFT components:
N(Alpha)           :       94.000047047603 electrons
N(Beta)            :       94.000047047603 electrons
N(Total)           :      188.000094095207 electrons
E(X)               :     -125.585200032140 Eh       
E(C)               :       -7.547744921917 Eh       
E(XC)              :     -133.132944954057 Eh       

---------------
SCF CONVERGENCE
---------------

  Last Energy change         ...   -3.4952e-09  Tolerance :   1.0000e-08
  Last MAX-Density change    ...    1.5367e-04  Tolerance :   1.0000e-07
  Last RMS-Density change    ...    1.2523e-06  Tolerance :   5.0000e-09
  Last DIIS Error            ...    1.7736e-03  Tolerance :   5.0000e-07
  Last Orbital Gradient      ...    2.1808e-05  Tolerance :   1.0000e-05
  Last Orbital Rotation      ...    3.3709e-05  Tolerance :   1.0000e-05


----------------
ORBITAL ENERGIES
----------------

  NO   OCC          E(Eh)            E(eV) 
   0   2.0000     -19.193677      -522.2865 
   1   2.0000     -19.193092      -522.2706 
   2   2.0000     -19.156876      -521.2851 
   3   2.0000     -19.125377      -520.4280 
   4   2.0000     -19.122833      -520.3587 
   5   2.0000     -10.355449      -281.7861 
   6   2.0000     -10.260471      -279.2016 
   7   2.0000     -10.258282      -279.1420 
   8   2.0000     -10.234563      -278.4966 
   9   2.0000     -10.217134      -278.0224 
  10   2.0000     -10.198265      -277.5089 
  11   2.0000     -10.193028      -277.3664 
  12   2.0000     -10.185639      -277.1653 
  13   2.0000     -10.185316      -277.1565 
  14   2.0000     -10.176998      -276.9302 
  15   2.0000     -10.173877      -276.8453 
  16   2.0000     -10.172170      -276.7988 
  17   2.0000     -10.170045      -276.7410 
  18   2.0000     -10.168948      -276.7111 
  19   2.0000     -10.167864      -276.6816 
  20   2.0000     -10.167232      -276.6644 
  21   2.0000     -10.162487      -276.5353 
  22   2.0000     -10.159122      -276.4438 
  23   2.0000     -10.158692      -276.4321 
  24   2.0000     -10.154710      -276.3237 
  25   2.0000     -10.151885      -276.2468 
  26   2.0000      -1.170290       -31.8452 
  27   2.0000      -1.061545       -28.8861 
  28   2.0000      -1.058238       -28.7961 
  29   2.0000      -1.052868       -28.6500 
  30   2.0000      -1.033885       -28.1335 
  31   2.0000      -0.865738       -23.5579 
  32   2.0000      -0.844097       -22.9690 
  33   2.0000      -0.819883       -22.3101 
  34   2.0000      -0.794897       -21.6302 
  35   2.0000      -0.791567       -21.5396 
  36   2.0000      -0.768935       -20.9238 
  37   2.0000      -0.760453       -20.6930 
  38   2.0000      -0.733418       -19.9573 
  39   2.0000      -0.715800       -19.4779 
  40   2.0000      -0.693535       -18.8720 
  41   2.0000      -0.691657       -18.8209 
  42   2.0000      -0.667840       -18.1728 
  43   2.0000      -0.627179       -17.0664 
  44   2.0000      -0.619692       -16.8627 
  45   2.0000      -0.615878       -16.7589 
  46   2.0000      -0.588964       -16.0265 
  47   2.0000      -0.581451       -15.8221 
  48   2.0000      -0.575587       -15.6625 
  49   2.0000      -0.554796       -15.0968 
  50   2.0000      -0.548816       -14.9340 
  51   2.0000      -0.544650       -14.8207 
  52   2.0000      -0.535039       -14.5592 
  53   2.0000      -0.526776       -14.3343 
  54   2.0000      -0.518194       -14.1008 
  55   2.0000      -0.495145       -13.4736 
  56   2.0000      -0.485952       -13.2234 
  57   2.0000      -0.477693       -12.9987 
  58   2.0000      -0.469437       -12.7740 
  59   2.0000      -0.459532       -12.5045 
  60   2.0000      -0.456401       -12.4193 
  61   2.0000      -0.454653       -12.3717 
  62   2.0000      -0.453996       -12.3539 
  63   2.0000      -0.451716       -12.2918 
  64   2.0000      -0.440662       -11.9910 
  65   2.0000      -0.427606       -11.6358 
  66   2.0000      -0.424800       -11.5594 
  67   2.0000      -0.419611       -11.4182 
  68   2.0000      -0.416574       -11.3356 
  69   2.0000      -0.413946       -11.2640 
  70   2.0000      -0.401342       -10.9211 
  71   2.0000      -0.395193       -10.7537 
  72   2.0000      -0.392188       -10.6720 
  73   2.0000      -0.391804       -10.6615 
  74   2.0000      -0.391266       -10.6469 
  75   2.0000      -0.381221       -10.3736 
  76   2.0000      -0.373619       -10.1667 
  77   2.0000      -0.366538        -9.9740 
  78   2.0000      -0.354757        -9.6534 
  79   2.0000      -0.350587        -9.5400 
  80   2.0000      -0.349042        -9.4979 
  81   2.0000      -0.341925        -9.3043 
  82   2.0000      -0.333335        -9.0705 
  83   2.0000      -0.326568        -8.8864 
  84   2.0000      -0.323685        -8.8079 
  85   2.0000      -0.320445        -8.7197 
  86   2.0000      -0.313766        -8.5380 
  87   2.0000      -0.308071        -8.3830 
  88   2.0000      -0.287441        -7.8217 
  89   2.0000      -0.258567        -7.0360 
  90   2.0000      -0.254493        -6.9251 
  91   2.0000      -0.251317        -6.8387 
  92   2.0000      -0.223577        -6.0838 
  93   2.0000      -0.202281        -5.5044 
  94   0.0000      -0.028020        -0.7625 
  95   0.0000      -0.017872        -0.4863 
  96   0.0000      -0.006632        -0.1805 
  97   0.0000       0.007255         0.1974 
  98   0.0000       0.008203         0.2232 
  99   0.0000       0.012544         0.3413 
 100   0.0000       0.020464         0.5568 
 101   0.0000       0.029188         0.7943 
 102   0.0000       0.031577         0.8592 
 103   0.0000       0.040446         1.1006 
 104   0.0000       0.051366         1.3977 
*Only the first 10 virtual orbitals were printed.

                    ********************************
                    * MULLIKEN POPULATION ANALYSIS *
                    ********************************

-----------------------
MULLIKEN ATOMIC CHARGES
-----------------------
   0 O :   -0.398916
   1 O :   -0.436886
   2 C :    0.107945
   3 C :    0.084895
   4 C :    0.107732
   5 C :   -0.254028
   6 C :    0.127884
   7 C :   -0.259143
   8 C :    0.216281
   9 C :   -0.193000
  10 C :    0.250930
  11 C :   -0.256486
  12 C :   -0.195580
  13 C :   -0.136719
  14 C :   -0.221541
  15 C :   -0.233042
  16 C :   -0.136928
  17 C :   -0.086061
  18 C :   -0.272803
  19 C :   -0.266228
  20 H :    0.117638
  21 H :    0.114123
  22 H :    0.119028
  23 H :    0.125352
  24 H :    0.119167
  25 H :    0.099766
  26 H :    0.104020
  27 H :    0.091094
  28 H :    0.106220
  29 H :    0.101344
  30 H :    0.118963
  31 H :    0.101147
  32 H :    0.336099
  33 H :    0.322984
  34 H :    0.124741
  35 H :    0.119055
  36 H :    0.106626
  37 H :    0.098984
  38 H :    0.113920
  39 H :    0.121080
  40 C :   -0.013554
  41 O :   -0.255248
  42 C :    0.439655
  43 C :   -0.030983
  44 O :   -0.259904
  45 O :   -0.329691
  46 H :    0.113129
  47 H :    0.126942
Sum of atomic charges:    0.0000000

--------------------------------
MULLIKEN REDUCED ORBITAL CHARGES
--------------------------------
  0 O s       :     3.763185  s :     3.763185
      pz      :     1.510429  p :     4.603987
      px      :     1.338964
      py      :     1.754594
      dz2     :     0.009857  d :     0.030025
      dxz     :     0.004224
      dyz     :     0.006407
      dx2y2   :     0.005990
      dxy     :     0.003548
      f0      :     0.000186  f :     0.001720
      f+1     :     0.000391
      f-1     :     0.000241
      f+2     :     0.000214
[...]

 40 C s       :     2.813363  s :     2.813363
      pz      :     0.938392  p :     2.901130
      px      :     0.946232
      py      :     1.016506
      dz2     :     0.083108  d :     0.474673
      dxz     :     0.121606
      dyz     :     0.097758
      dx2y2   :     0.048811
      dxy     :     0.123390
      f0      :     0.011447  f :     0.068696
      f+1     :     0.012772
      f-1     :     0.005525
      f+2     :     0.012454
      f-2     :     0.011228
      f+3     :     0.008788
      f-3     :     0.006483

 41 O s       :     3.270481  s :     3.270481
      pz      :     1.430041  p :     4.352825
      px      :     1.441868
      py      :     1.480916
      dz2     :     0.027846  d :     0.104772
      dxz     :     0.018724
      dyz     :     0.021417
      dx2y2   :     0.018514
      dxy     :     0.018270
      f0      :     0.001237  f :     0.007352
      f+1     :     0.001344
      f-1     :     0.001357
      f+2     :     0.000784
      f-2     :     0.000902
      f+3     :     0.000989
      f-3     :     0.000739

 42 C s       :     2.736572  s :     2.736572
      pz      :     0.860764  p :     2.589682
      px      :     0.914087
      py      :     0.814832
      dz2     :     0.241570  d :     1.084981
      dxz     :     0.264724
      dyz     :     0.160277
      dx2y2   :     0.220260
      dxy     :     0.198150
      f0      :     0.024442  f :     0.195659
      f+1     :     0.048801
      f-1     :     0.017551
      f+2     :     0.024090
      f-2     :     0.030042
      f+3     :     0.026594
      f-3     :     0.024139

 43 C s       :     2.813195  s :     2.813195
      pz      :     1.049628  p :     2.901766
      px      :     0.836308
      py      :     1.015829
      dz2     :     0.108362  d :     0.473021
      dxz     :     0.096566
      dyz     :     0.033258
      dx2y2   :     0.136660
      dxy     :     0.098174
      f0      :     0.006754  f :     0.068594
      f+1     :     0.009667
      f-1     :     0.005948
      f+2     :     0.007988
      f-2     :     0.011525
      f+3     :     0.013635
      f-3     :     0.013077

 44 O s       :     3.270820  s :     3.270820
      pz      :     1.519271  p :     4.354348
      px      :     1.276278
      py      :     1.558798
      dz2     :     0.015636  d :     0.104559
      dxz     :     0.034505
      dyz     :     0.010483
      dx2y2   :     0.024676
      dxy     :     0.019258
      f0      :     0.000734  f :     0.007325
      f+1     :     0.001614
      f-1     :     0.000400
      f+2     :     0.001607
      f-2     :     0.001030
      f+3     :     0.001064
      f-3     :     0.000875

 45 O s       :     3.391051  s :     3.391051
      pz      :     1.513324  p :     4.424223
      px      :     1.502488
      py      :     1.408410
      dz2     :     0.008648  d :     0.065671
      dxz     :     0.017801
      dyz     :     0.007367
      dx2y2   :     0.014222
      dxy     :     0.017634
      f0      :     0.000718  f :     0.006577
      f+1     :     0.001003
      f-1     :     0.000288
      f+2     :     0.000988
      f-2     :     0.001365
      f+3     :     0.000976
      f-3     :     0.001239

 46 H s       :     0.810484  s :     0.810484
      pz      :     0.016708  p :     0.059762
      px      :     0.019478
      py      :     0.023576

 47 H s       :     0.810584  s :     0.810584
      pz      :     0.013666  p :     0.060475
      px      :     0.009093
      py      :     0.037716



                      *****************************
                      * MAYER POPULATION ANALYSIS *
                      *****************************

  NA   - Mulliken gross atomic population
  ZA   - Total nuclear charge
  QA   - Mulliken gross atomic charge
  VA   - Mayer's total valence
  BVA  - Mayer's bonded valence
  FA   - Mayer's free valence

  ATOM       NA         ZA         QA         VA         BVA        FA
  0 O      8.4095     8.0000    -0.4095     2.0769     2.0769    -0.0000
  1 O      8.4348     8.0000    -0.4348     2.0167     2.0167     0.0000
  2 C      5.8966     6.0000     0.1034     3.3851     3.3851     0.0000
  3 C      5.9368     6.0000     0.0632     3.7315     3.7315     0.0000
  4 C      5.8994     6.0000     0.1006     3.5228     3.5228    -0.0000
  5 C      6.2365     6.0000    -0.2365     3.9701     3.9701     0.0000
  6 C      5.8700     6.0000     0.1300     3.7162     3.7162     0.0000
  7 C      6.2574     6.0000    -0.2574     3.8540     3.8540     0.0000
  8 C      5.7743     6.0000     0.2257     3.9658     3.9658    -0.0000
  9 C      6.1640     6.0000    -0.1640     3.9066     3.9066     0.0000
 10 C      5.7426     6.0000     0.2574     3.8059     3.8059     0.0000
 11 C      6.2565     6.0000    -0.2565     3.9210     3.9210     0.0000
 12 C      6.1967     6.0000    -0.1967     3.8748     3.8748    -0.0000
 13 C      6.1374     6.0000    -0.1374     3.9149     3.9149     0.0000
 14 C      6.2452     6.0000    -0.2452     3.8692     3.8692     0.0000
 15 C      6.2294     6.0000    -0.2294     3.9853     3.9853     0.0000
 16 C      6.1365     6.0000    -0.1365     3.8009     3.8009     0.0000
 17 C      6.0853     6.0000    -0.0853     3.8357     3.8357    -0.0000
 18 C      6.2722     6.0000    -0.2722     3.9113     3.9113     0.0000
 19 C      6.2663     6.0000    -0.2663     3.9364     3.9364    -0.0000
 20 H      0.8824     1.0000     0.1176     0.9810     0.9810     0.0000
 21 H      0.8866     1.0000     0.1134     0.9837     0.9837     0.0000
 22 H      0.8830     1.0000     0.1170     0.9816     0.9816     0.0000
 23 H      0.8733     1.0000     0.1267     0.9663     0.9663     0.0000
 24 H      0.8814     1.0000     0.1186     0.9755     0.9755     0.0000
 25 H      0.9001     1.0000     0.0999     0.9701     0.9701     0.0000
 26 H      0.8962     1.0000     0.1038     0.9690     0.9690    -0.0000
 27 H      0.9093     1.0000     0.0907     0.9738     0.9738     0.0000
 28 H      0.8959     1.0000     0.1041     0.9875     0.9875     0.0000
 29 H      0.8992     1.0000     0.1008     0.9925     0.9925     0.0000
 30 H      0.8816     1.0000     0.1184     0.9777     0.9777    -0.0000
 31 H      0.8988     1.0000     0.1012     0.9750     0.9750    -0.0000
 32 H      0.6683     1.0000     0.3317     0.9353     0.9353    -0.0000
 33 H      0.6766     1.0000     0.3234     0.9275     0.9275     0.0000
 34 H      0.8758     1.0000     0.1242     0.9755     0.9755    -0.0000
 35 H      0.8810     1.0000     0.1190     0.9760     0.9760     0.0000
 36 H      0.8934     1.0000     0.1066     0.9741     0.9741     0.0000
 37 H      0.9012     1.0000     0.0988     0.9780     0.9780    -0.0000
 38 H      0.8853     1.0000     0.1147     0.9566     0.9566     0.0000
 39 H      0.8778     1.0000     0.1222     0.9570     0.9570    -0.0000
 40 C      6.0143     6.0000    -0.0143     3.8742     3.8742    -0.0000
 41 O      8.2544     8.0000    -0.2544     2.1348     2.1348    -0.0000
 42 C      5.5540     6.0000     0.4460     4.3800     4.3800     0.0000
 43 C      6.0291     6.0000    -0.0291     3.8795     3.8795    -0.0000
 44 O      8.2604     8.0000    -0.2604     2.1259     2.1259     0.0000
 45 O      8.3326     8.0000    -0.3326     2.1530     2.1530     0.0000
 46 H      0.8844     1.0000     0.1156     0.9671     0.9671    -0.0000
 47 H      0.8762     1.0000     0.1238     0.9632     0.9632     0.0000

  Mayer bond orders larger than 0.100000
B(  0-O ,  8-C ) :   1.1328 B(  0-O , 32-H ) :   0.8384 B(  1-O , 10-C ) :   1.0430 
B(  1-O , 33-H ) :   0.8607 B(  2-C ,  3-C ) :   0.8625 B(  2-C ,  7-C ) :   1.3004 
B(  2-C ,  8-C ) :   1.2491 B(  3-C ,  5-C ) :   1.4251 B(  3-C ,  9-C ) :   1.3533 
B(  4-C ,  5-C ) :   1.3491 B(  4-C , 10-C ) :   1.2813 B(  4-C , 11-C ) :   0.9033 
B(  5-C , 20-H ) :   0.9534 B(  6-C ,  7-C ) :   1.3870 B(  6-C , 12-C ) :   0.9105 
B(  6-C , 13-C ) :   1.3628 B(  7-C , 21-H ) :   0.9713 B(  8-C , 15-C ) :   1.4228 
B(  9-C , 14-C ) :   1.3954 B(  9-C , 22-H ) :   0.9897 B( 10-C , 14-C ) :   1.3694 
B( 11-C , 16-C ) :   0.9549 B( 11-C , 23-H ) :   0.9806 B( 11-C , 24-H ) :   0.9658 
B( 12-C , 17-C ) :   0.9677 B( 12-C , 25-H ) :   0.9659 B( 12-C , 26-H ) :   0.9726 
B( 13-C , 15-C ) :   1.4234 B( 13-C , 27-H ) :   0.9786 B( 14-C , 28-H ) :   0.9973 
B( 15-C , 29-H ) :   0.9835 B( 16-C , 18-C ) :   1.8904 B( 16-C , 30-H ) :   0.9559 
B( 17-C , 19-C ) :   1.9258 B( 17-C , 31-H ) :   0.9549 B( 18-C , 34-H ) :   0.9674 
B( 18-C , 35-H ) :   0.9645 B( 19-C , 36-H ) :   0.9660 B( 19-C , 37-H ) :   0.9623 
B( 38-H , 40-C ) :   0.9607 B( 39-H , 43-C ) :   0.9609 B( 40-C , 43-C ) :   0.9914 
B( 40-C , 44-O ) :   0.9239 B( 40-C , 46-H ) :   0.9574 B( 41-O , 42-C ) :   1.1599 
B( 41-O , 43-C ) :   0.9295 B( 42-C , 44-O ) :   1.1510 B( 42-C , 45-O ) :   2.0030 
B( 43-C , 47-H ) :   0.9543 

-------
TIMINGS
-------

Total SCF time: 0 days 0 hours 0 min 34 sec 

Total time                  ....      34.332 sec
Sum of individual times     ....      33.607 sec  ( 97.9%)

SCF preparation             ....       0.820 sec  (  2.4%)
Fock matrix formation       ....      30.068 sec  ( 87.6%)
  Startup                   ....       0.097 sec  (  0.3% of F)
  Split-RI-J                ....       2.516 sec  (  8.4% of F)
  Chain of spheres X        ....      24.689 sec  ( 82.1% of F)
  XC integration            ....       2.462 sec  (  8.2% of F)
    XC Preparation          ....       0.000 sec  (  0.0% of XC)
    Basis function eval.    ....       0.552 sec  ( 22.4% of XC)
    Density eval.           ....       0.727 sec  ( 29.5% of XC)
    XC-Functional eval.     ....       0.042 sec  (  1.7% of XC)
    XC-Potential eval.      ....       0.717 sec  ( 29.1% of XC)
Diagonalization             ....       0.000 sec  (  0.0%)
Density matrix formation    ....       0.278 sec  (  0.8%)
Total Energy calculation    ....       0.125 sec  (  0.4%)
Population analysis         ....       0.292 sec  (  0.9%)
Orbital Transformation      ....       0.306 sec  (  0.9%)
Orbital Orthonormalization  ....       0.000 sec  (  0.0%)
DIIS solution               ....       0.352 sec  (  1.0%)
SOSCF solution              ....       1.366 sec  (  4.0%)
Finished LeanSCF after  34.5 sec

Maximum memory used throughout the entire LEANSCF-calculation: 155.1 MB

-------------------------   --------------------
FINAL SINGLE POINT ENERGY     -1189.348827519830
-------------------------   --------------------

                                *** OPTIMIZATION RUN DONE ***

--------------------------------------------------------------------------
WARNING: There was an error initializing an OpenFabrics device.

  Local host:   ga01
  Local device: mlx5_0
--------------------------------------------------------------------------


           ************************************************************
           *        Program running with 20 parallel MPI-processes    *
           *              working on a common directory               *
           ************************************************************

------------------------------------------------------------------------------
                              ORCA PROPERTY CALCULATIONS
------------------------------------------------------------------------------

GBWName                                 ... honokiol2-opt_EC_closer.gbw
Number of atoms                         ...     48
Number of basis functions               ...    938
Max core memory                         ...   5000 MB

Electric properties:
Dipole moment                           ... YES
Quadrupole moment                       ...  NO
Static polarizability (Dipole/Dipole)   ...  NO
Static polarizability (Dipole/Quad.)    ...  NO
Static polarizability (Quad./Quad.)     ...  NO
Static polarizability (Velocity)        ...  NO

Atomic electric properties:
Dipole moment                           ...  NO
Quadrupole moment                       ...  NO
Static polarizability                   ...  NO

Choice of electric origin               ... Center of mass
Position of electric origin             ...    -1.834602    -0.571923     1.522771

General magnetic properties:
Magnetizability                         ...  NO

EPR properties:
g-Tensor (aka g-matrix)                 ...  NO
Zero-Field splitting spin-orbit         ...  NO
Zero-field splitting spin-spin          ...  NO
Hyperfine couplings                     ...  NO (   0 nuclei)
Quadrupole couplings                    ...  NO (   0 nuclei)
Contact density                         ...  NO (   0 nuclei)

NMR properties:
Chemical shifts                         ...  NO (   0 nuclei)
Spin-rotation constants                 ...  NO (   0 nuclei)
Spin-spin couplings                     ...  NO (   0 nuclei,    0 pairs)

Choice of magnetic origin               ... GIAO
Position of magnetic origin             ...     0.000000     0.000000     0.000000

Properties with geometric perturbations:
SCF Hessian                             ...  NO
IR spectrum                             ...  NO
VCD spectrum                            ...  NO
X-ray spectroscopy properties:
SCF XES/XAS/RIXS spectra                ...  NO


-------------
DIPOLE MOMENT
-------------

Method             : SCF
Type of density    : Electron Density
Multiplicity       :   1
Irrep              :   0
Energy             : -1189.3488275198296833 Eh
Relativity type    : 
Basis              : AO
                                X                 Y                 Z
Electronic contribution:      0.803106197       7.596113536      15.806451723
Nuclear contribution   :     -3.328900995      -8.549596376     -15.450873225
                        -----------------------------------------
Total Dipole Moment    :     -2.525794798      -0.953482839       0.355578497
                        -----------------------------------------
Magnitude (a.u.)       :      2.723087394
Magnitude (Debye)      :      6.921538092



--------------------
Rotational spectrum 
--------------------
 
Rotational constants in cm-1:             0.009330             0.004164             0.003160 
Rotational constants in MHz :           279.697000           124.846816            94.729393 

Dipole components along the rotational axes: 
x,y,z [a.u.] :     2.403293     1.279807     0.038490 
x,y,z [Debye]:     6.108685     3.253012     0.097835 

 

Dipole moment calculation done in   0.1 sec 

Maximum memory used throughout the entire PROP-calculation: 86.3 MB
[ga01:965727] 19 more processes have sent help message help-mpi-btl-openib.txt / error in device init
[ga01:965727] Set MCA parameter "orte_base_help_aggregate" to 0 to see all help / error messages
--------------------------------------------------------------------------
WARNING: There was an error initializing an OpenFabrics device.

  Local host:   ga01
  Local device: mlx5_0
--------------------------------------------------------------------------
[ga01:965812] 19 more processes have sent help message help-mpi-btl-openib.txt / error in device init
[ga01:965812] Set MCA parameter "orte_base_help_aggregate" to 0 to see all help / error messages

--------------------------------
SUGGESTED CITATIONS FOR THIS RUN
--------------------------------

Below you find a list of papers that are relevant to this ORCA run
We neither can nor want to force you to cite these papers, but we appreciate if you do
You receive ORCA, which is the product of decades of hard work by many enthusiastic individuals, for free
The only thing we kindly ask in return is that you cite our papers,
We deeply appreciate it, if you show your appreciation for ORCA by not just citing the generic ORCA reference.

Please note that relegating all ORCA citations to the supporting information does *not* help us.
SI sections are not indexed - citations you put there will not count into any citation statistics
But we need these citations in order to attract the funding resources that allow us to do what we are doing

Therefore, if you are a happy ORCA user, please consider citing a few of the papers listed below in the main body of your paper

In addition to the list printed below, the program has created the file honokiol2-opt_EC_closer.bibtex that contains the list in bibtex format
You can import this file easily into all common literature databanks and citation aid programs


List of essential papers. We consider these as the minimum necessary citations

  1. Neese,F.
     Software update: the ORCA program system, version 5.0
     WIRES Comput. Molec. Sci., 2022 12(1)e1606
     doi.org/10.1002/wcms.1606

List of papers to cite with high priority. The work reported in these papers was absolutely
necessary for this run to complete.
Our perspective: the developers of density functionals and basis sets usually get cited in chemistry papers
Good! But without the algorithms to do something with them, the functionals or basis sets would not do anything.
Hence, in our opinion, the algorithm design and method developments papers are equally worthy of getting cited

  1. Neese,F.
     An improvement of the resolution of the identity approximation for the formation of the Coulomb matrix
     J. Comp. Chem., 2003 24(14)1740-1747
     doi.org/10.1002/jcc.10318
  2. Neese,F.; Wennmohs,F.; Hansen,A.; Becker,U.
     Efficient, approximate and parallel Hartree-Fock and hybrid DFT calculations. A 'chain-of-spheres' algorithm for the Hartree-Fock exchange
     Chem. Phys., 2009 356(1-3)98-109
     doi.org/10.1016/j.chemphys.2008.10.036
  3. Helmich-Paris,B.; de Souza,B.; Neese,F.; Izsák,R.
     An improved chain of spheres for exchange algorithm
     J. Chem. Phys., 2021 155 104109
     doi.org/doi: 10.1063/5.0058766.
  4. Neese,F.
     The SHARK Integral Generation and Digestion System
     J. Comp. Chem., 2022  1-16
     doi.org/10.1002/jcc.26942

List of suggested additional citations. These are papers that are important in the 'surrounding' of 
of this run, or papers that preceded the highly important papers. If you like your results we are grateful for a citation.

  1. Izsak,R.; Neese,F.
     An overlap fitted chain of spheres exchange method
     J. Chem. Phys., 2011 135 144105
     doi.org/10.1063/1.3646921
  2. Izsak,R.; Hansen,A.; Neese,F.
     The resolution of identity and chain of spheres approximations for the LPNO-CCSD singles Fock term
     Molec. Phys., 2012 110 2413-2417
     doi.org/10.1080/00268976.2012.687466
  3. Neese,F.
     The ORCA program system
     WIRES Comput. Molec. Sci., 2012 2(1)73-78
     doi.org/10.1002/wcms.81
  4. Izsak,R.; Neese,F.; Klopper,W.
     Robust fitting techniques in the chain of spheres approximation to the Fock exchange: The role of the complementary space
     J. Chem. Phys., 2013 139 
     doi.org/10.1063/1.4819264
  5. Neese,F.
     Software update: the ORCA program system, version 4.0
     WIRES Comput. Molec. Sci., 2018 8(1)1-6
     doi.org/10.1002/wcms.1327
  6. Neese,F.; Wennmohs,F.; Becker,U.; Riplinger,C.
     The ORCA quantum chemistry program package
     J. Chem. Phys., 2020 152 Art. No. L224108
     doi.org/10.1063/5.0004608

List of optional additional citations

  1. Neese,F.
     Approximate second-order SCF convergence for spin unrestricted wavefunctions
     Chem. Phys. Lett., 2000 325(1-3)93-98
     doi.org/10.1016/s0009-2614(00)00662-x

Timings for individual modules:

Sum of individual times          ...     1500.165 sec (=  25.003 min)
Startup calculation              ...       94.919 sec (=   1.582 min)   6.3 %
SCF iterations                   ...      972.259 sec (=  16.204 min)  64.8 %
Property calculations            ...        1.014 sec (=   0.017 min)   0.1 %
SCF Gradient evaluation          ...      431.455 sec (=   7.191 min)  28.8 %
Geometry relaxation              ...        0.519 sec (=   0.009 min)   0.0 %
                             ****ORCA TERMINATED NORMALLY****
TOTAL RUN TIME: 0 days 0 hours 25 minutes 18 seconds 394 msec
