[Molden Format]
[Title]
 Molden file created by orca_2mkl for BaseName=FEC

[Atoms] AU
F    1   9         -3.5894683420         1.2582818325        -1.3006395297 
O    2   8          0.0929412466         1.7365297814         0.8202969984 
O    3   8          1.0583019398        -2.2139248749        -0.2837615066 
O    4   8          4.0873996679         0.7934182533        -0.4057935352 
C    5   6         -2.2303747987         0.4851283440         0.7836140742 
C    6   6         -1.5140826423        -2.2985472692         0.5444917433 
C    7   6          1.9819184864         0.1537613407        -0.0180941716 
H    8   1         -3.3181843535         1.0007959355         2.4510509274 
H    9   1         -1.6154322020        -3.2886900128         2.3499044974 
H   10   1         -2.6568655324        -3.2600269357        -0.8681427611 
[GTO]
  1 0
s   6 1.0 
    35479.1004410000         1.0351654302
     5318.4728983000         1.9331170875
     1210.4810975000         3.3081679067
      342.8551814000         5.1904360265
      112.0194318100         7.1453715076
       40.7147402480         7.7853597648
s   2 1.0 
       16.0396781110         3.6156464853
        6.5038186740         1.1649992517
s   1 1.0 
        1.5440477509         0.9872011158
s   1 1.0 
        0.6122345286         0.4932856214
s   1 1.0 
        0.2402797970         0.2445952588
p   4 1.0 
       80.2339004830         4.2174077507
       18.5940107430         4.7174264054
        5.6867902653         4.0849101385
        1.9511006294         2.2998974220
p   1 1.0 
        0.6697021130         0.8635593174
p   1 1.0 
        0.2165130041         0.2105208284
d   1 1.0 
        3.1070000000        20.7284714039
d   1 1.0 
        0.8550000000         2.1672588463
f   1 1.0 
        1.9170000000        24.6547062912

  2 0
s   6 1.0 
    27032.3826310000         0.8598581479
     4052.3871392000         1.6055305368
      922.3272271000         2.7458778516
      261.2407098900         4.2987674426
       85.3546413510         5.8797663284
       31.0350352450         6.3163983216
s   2 1.0 
       12.2608607280         2.9812147522
        4.9987076005         0.9419559635
s   1 1.0 
        1.1703108158         0.8019291610
s   1 1.0 
        0.4647474099         0.4011648062
s   1 1.0 
        0.1850453636         0.2010799406
p   4 1.0 
       63.2749548010         3.0572017144
       14.6270493790         3.3844839414
        4.4501223456         2.9474262132
        1.5275799647         1.7118271494
p   1 1.0 
        0.5293511794         0.6436057926
p   1 1.0 
        0.1747842127         0.1610897254
d   1 1.0 
        2.3140000000        12.3767310624
d   1 1.0 
        0.6450000000         1.3234257612
f   1 1.0 
        1.4280000000        12.7097950062

  3 0
s   6 1.0 
    27032.3826310000         0.8598581479
     4052.3871392000         1.6055305368
      922.3272271000         2.7458778516
      261.2407098900         4.2987674426
       85.3546413510         5.8797663284
       31.0350352450         6.3163983216
s   2 1.0 
       12.2608607280         2.9812147522
        4.9987076005         0.9419559635
s   1 1.0 
        1.1703108158         0.8019291610
s   1 1.0 
        0.4647474099         0.4011648062
s   1 1.0 
        0.1850453636         0.2010799406
p   4 1.0 
       63.2749548010         3.0572017144
       14.6270493790         3.3844839414
        4.4501223456         2.9474262132
        1.5275799647         1.7118271494
p   1 1.0 
        0.5293511794         0.6436057926
p   1 1.0 
        0.1747842127         0.1610897254
d   1 1.0 
        2.3140000000        12.3767310624
d   1 1.0 
        0.6450000000         1.3234257612
f   1 1.0 
        1.4280000000        12.7097950062

  4 0
s   6 1.0 
    27032.3826310000         0.8598581479
     4052.3871392000         1.6055305368
      922.3272271000         2.7458778516
      261.2407098900         4.2987674426
       85.3546413510         5.8797663284
       31.0350352450         6.3163983216
s   2 1.0 
       12.2608607280         2.9812147522
        4.9987076005         0.9419559635
s   1 1.0 
        1.1703108158         0.8019291610
s   1 1.0 
        0.4647474099         0.4011648062
s   1 1.0 
        0.1850453636         0.2010799406
p   4 1.0 
       63.2749548010         3.0572017144
       14.6270493790         3.3844839414
        4.4501223456         2.9474262132
        1.5275799647         1.7118271494
p   1 1.0 
        0.5293511794         0.6436057926
p   1 1.0 
        0.1747842127         0.1610897254
d   1 1.0 
        2.3140000000        12.3767310624
d   1 1.0 
        0.6450000000         1.3234257612
f   1 1.0 
        1.4280000000        12.7097950062

  5 0
s   6 1.0 
    13575.3496820000         0.5435905310
     2035.2333680000         1.0145543947
      463.2256235900         1.7315731970
      131.2001959800         2.6910376290
       42.8530158910         3.6044547126
       15.5841857660         3.7025556986
s   2 1.0 
        6.2067138508         1.8383540830
        2.5764896527         0.5447575605
s   1 1.0 
        0.5769633942         0.4718145038
s   1 1.0 
        0.2297283136         0.2364944676
s   1 1.0 
        0.0951644400         0.1221141848
p   4 1.0 
       34.6972322440         1.3596651507
        7.9582622826         1.4512589486
        2.3780826883         1.2709231419
        0.8143320818         0.8025721189
p   1 1.0 
        0.2888754725         0.3018758868
p   1 1.0 
        0.1005682367         0.0807265016
d   1 1.0 
        1.0970000000         3.3522135855
d   1 1.0 
        0.3180000000         0.3838994974
f   1 1.0 
        0.7610000000         3.0840084332

  6 0
s   6 1.0 
    13575.3496820000         0.5435905310
     2035.2333680000         1.0145543947
      463.2256235900         1.7315731970
      131.2001959800         2.6910376290
       42.8530158910         3.6044547126
       15.5841857660         3.7025556986
s   2 1.0 
        6.2067138508         1.8383540830
        2.5764896527         0.5447575605
s   1 1.0 
        0.5769633942         0.4718145038
s   1 1.0 
        0.2297283136         0.2364944676
s   1 1.0 
        0.0951644400         0.1221141848
p   4 1.0 
       34.6972322440         1.3596651507
        7.9582622826         1.4512589486
        2.3780826883         1.2709231419
        0.8143320818         0.8025721189
p   1 1.0 
        0.2888754725         0.3018758868
p   1 1.0 
        0.1005682367         0.0807265016
d   1 1.0 
        1.0970000000         3.3522135855
d   1 1.0 
        0.3180000000         0.3838994974
f   1 1.0 
        0.7610000000         3.0840084332

  7 0
s   6 1.0 
    13575.3496820000         0.5435905310
     2035.2333680000         1.0145543947
      463.2256235900         1.7315731970
      131.2001959800         2.6910376290
       42.8530158910         3.6044547126
       15.5841857660         3.7025556986
s   2 1.0 
        6.2067138508         1.8383540830
        2.5764896527         0.5447575605
s   1 1.0 
        0.5769633942         0.4718145038
s   1 1.0 
        0.2297283136         0.2364944676
s   1 1.0 
        0.0951644400         0.1221141848
p   4 1.0 
       34.6972322440         1.3596651507
        7.9582622826         1.4512589486
        2.3780826883         1.2709231419
        0.8143320818         0.8025721189
p   1 1.0 
        0.2888754725         0.3018758868
p   1 1.0 
        0.1005682367         0.0807265016
d   1 1.0 
        1.0970000000         3.3522135855
d   1 1.0 
        0.3180000000         0.3838994974
f   1 1.0 
        0.7610000000         3.0840084332

  8 0
s   3 1.0 
       34.0613410000         0.2556299169
        5.1235746000         0.4613599649
        1.1646626000         0.6811214941
s   1 1.0 
        0.3272304100         0.3083545312
s   1 1.0 
        0.1030724100         0.1296483265
p   1 1.0 
        0.8000000000         1.0784563492

  9 0
s   3 1.0 
       34.0613410000         0.2556299169
        5.1235746000         0.4613599649
        1.1646626000         0.6811214941
s   1 1.0 
        0.3272304100         0.3083545312
s   1 1.0 
        0.1030724100         0.1296483265
p   1 1.0 
        0.8000000000         1.0784563492

 10 0
s   3 1.0 
       34.0613410000         0.2556299169
        5.1235746000         0.4613599649
        1.1646626000         0.6811214941
s   1 1.0 
        0.3272304100         0.3083545312
s   1 1.0 
        0.1030724100         0.1296483265
p   1 1.0 
        0.8000000000         1.0784563492

[5D]
[7F]
[9G]
[MO]
 Sym=     1a
 Ene= -2.47036644516569E+01
 Spin= Alpha
 Occup= 2.000000
  1       0.425343067314
  2       0.648890513955
  3       0.034368691193
  4      -0.022649216325
  5       0.010547969662
  6       0.000754485613
  7      -0.000450726073
  8       0.001033752069
  9      -0.001897911871
 10       0.001097979604
 11      -0.002340354116
 12       0.001294881904
 13      -0.000567887047
 14       0.000330166760
 15       0.000090644905
 16       0.000143423360
 17      -0.000088571022
 18       0.000018165775
 19      -0.000048416711
 20      -0.000383688970
 21      -0.000646414630
 22       0.000396374761
 23      -0.000099471341
 24       0.000239698225
 25       0.000006026241
 26      -0.000097752494
 27       0.000058013186
 28      -0.000040271902
 29       0.000073347028
 30      -0.000002138865
 31      -0.000024955918
 32       0.000001381843
 33      -0.000007702026
 34       0.000051018561
 35       0.000161012913
 36       0.000358330709
 37       0.000042628012
 38       0.000018046173
 39      -0.000047011811
 40      -0.000710903971
 41      -0.000012428283
 42       0.000156588148
 43      -0.001723352778
 44       0.000670390849
 45       0.000067336208
 46       0.000011339343
 47       0.000028134004
 48       0.000000380123
 49       0.000012952936
 50      -0.000029263488
 51      -0.000026435592
 52       0.000066224417
 53      -0.000017830951
 54      -0.000013948149
 55       0.000257666839
 56      -0.000001455288
 57       0.000035662752
 58      -0.000005261108
 59       0.000013927991
 60      -0.000064777512
 61      -0.000023393356
 62      -0.000011884018
 63       0.000003234024
 64      -0.000019808073
 65       0.000253914634
 66      -0.000812318755
 67      -0.001603671015
 68      -0.000064513630
 69       0.000007522331
 70       0.000028138049
 71       0.000583738045
 72      -0.000123297248
 73      -0.000180736845
 74       0.000414806008
 75      -0.000052899170
 76       0.000293431759
 77      -0.000005857786
 78      -0.000006064370
 79       0.000006288645
 80       0.000012559551
 81       0.000005296675
 82       0.000102856221
 83       0.000064372565
 84      -0.000018813142
 85      -0.000123287620
 86       0.000020785339
 87       0.000004449814
 88      -0.000017138487
 89       0.000003462163
 90      -0.000005683405
 91       0.000021894976
 92      -0.000010718912
 93       0.000000171678
 94      -0.000000448603
 95       0.000002826546
 96      -0.000061618411
 97       0.000156382062
 98       0.000404333750
 99       0.000052444777
100      -0.000019982537
101       0.000029153816
102      -0.000311036832
103       0.000078027459
104      -0.000120243532
105       0.000461031165
106      -0.000317847245
107       0.000165638975
108      -0.000002216071
109      -0.000007370454
110       0.000000606629
111       0.000006244916
112      -0.000003900542
113      -0.000027151545
114       0.000016445183
115      -0.000009065502
116       0.000023091921
117       0.000052704758
118      -0.000008524913
119       0.000011301316
120       0.000007812731
121       0.000005100458
122       0.000011048076
123      -0.000004947445
124       0.000021575584
125       0.000041253729
126      -0.000181773736
127      -0.000627350362
128       0.003093640048
129      -0.015448944948
130       0.000219263822
131      -0.000054386901
132       0.000126973774
133      -0.002446333240
134       0.001139131552
135      -0.002669886844
136      -0.003466041317
137       0.002533439080
138       0.004810408478
139       0.000166266358
140       0.000303708737
141      -0.000201294339
142       0.000109289107
143      -0.000235845168
144       0.001838069589
145       0.002053521552
146      -0.001006706594
147       0.000264080897
148      -0.000283303214
149      -0.000137884355
150      -0.000568118834
151       0.000350698366
152      -0.000295808722
153       0.000459297479
154      -0.000043731839
155      -0.000015902668
156       0.000004636233
157      -0.000017604475
158      -0.000220276805
159       0.002230908068
160       0.007305971172
161      -0.000186696506
162      -0.000026766448
163      -0.000035079685
164       0.001092148659
165       0.001570324387
166       0.000052218172
167      -0.000771604835
168       0.002305544927
169      -0.001232874242
170      -0.000008240884
171       0.000070001791
172      -0.000071472614
173      -0.000003528810
174      -0.000058888227
175      -0.000545002787
176      -0.000929327382
177      -0.000040717904
178       0.000038530035
179       0.000164144576
180       0.000019472908
181       0.000039265831
182      -0.000007510723
183      -0.000011689859
184      -0.000042251805
185      -0.000018356361
186      -0.000022585957
187      -0.000008060322
188       0.000038476544
189      -0.000631896853
190       0.001509293078
191       0.004556140742
192       0.000120600346
193      -0.000081451865
194      -0.000008458922
195      -0.001398633747
196       0.000616210146
197       0.000388349158
198      -0.003088098445
199       0.000599006077
200       0.000037329553
201       0.000042058091
202      -0.000032896801
203      -0.000010185827
204      -0.000081028932
205      -0.000034172186
206      -0.000394664287
207      -0.000013318957
208       0.000315891004
209       0.000333210361
210      -0.000371285280
211      -0.000039354269
212       0.000066567941
213      -0.000008824620
214       0.000009907024
215      -0.000061815019
216      -0.000000619128
217      -0.000064682480
218       0.000070114160
219       0.000540251389
220      -0.000974764920
221      -0.000134987774
222       0.000038374350
223      -0.000079272818
224       0.000046718776
225       0.000075571013
226       0.000192835031
227       0.000154594149
228      -0.000013609018
229       0.000012519671
230       0.000156984894
231       0.000627808564
232      -0.000860985084
233       0.000039648218
234       0.000246165691
235       0.000050474905
 Sym=     1a
 Ene= -1.92089615957508E+01
 Spin= Alpha
 Occup= 2.000000
  1       0.000001151351
  2      -0.000008742616
  3       0.000057899964
  4       0.000011254748
  5       0.001469856833
  6      -0.000006793144
  7       0.000066915808
  8      -0.000031387056
  9       0.000152319162
 10      -0.000263957076
 11       0.000196177940
 12       0.000072290967
 13      -0.000048277688
 14      -0.000002765636
 15      -0.000011993733
 16       0.000021214756
 17      -0.000002746433
 18       0.000037493855
 19       0.000058712903
 20       0.000013766629
 21      -0.000071951298
 22       0.000020292909
 23      -0.000128233306
 24      -0.000216373095
 25       0.000010991862
 26      -0.000000256322
 27       0.000027740900
 28      -0.000010934734
 29      -0.000013383092
 30       0.000021320721
 31       0.000019020493
 32       0.435107961383
 33       0.639381722425
 34       0.037754164492
 35      -0.032437962945
 36       0.005896447899
 37      -0.000350491863
 38      -0.002147959623
 39      -0.000608234004
 40       0.001027699505
 41       0.006031934942
 42       0.001721373825
 43       0.000000906247
 44       0.000573475457
 45       0.000325708366
 46      -0.000243552831
 47      -0.000102798188
 48       0.000091299097
 49       0.000179164948
 50      -0.000004537111
 51       0.001496095401
 52       0.000588899155
 53      -0.000555965309
 54      -0.001023858912
 55      -0.000091287323
 56      -0.000091864146
 57      -0.000101899841
 58      -0.000123206273
 59       0.000037075801
 60      -0.000110772342
 61      -0.000068012979
 62      -0.000346993055
 63      -0.001615179454
 64      -0.002313573833
 65      -0.000834136583
 66       0.003208250959
 67      -0.000093128316
 68       0.000045716942
 69       0.000000590610
 70      -0.000045664522
 71      -0.000533250253
 72       0.000643490957
 73       0.000430738136
 74      -0.001175782418
 75      -0.000077517140
 76       0.000230985456
 77      -0.000046601175
 78       0.000009378102
 79       0.000017853131
 80      -0.000027490910
 81      -0.000007836537
 82       0.000053007026
 83      -0.000141448510
 84      -0.000050896757
 85       0.000165058811
 86       0.000077395418
 87       0.000011074501
 88       0.000001540391
 89       0.000042656106
 90       0.000074121526
 91       0.000016782252
 92       0.000088104606
 93      -0.000018727952
 94      -0.000015869936
 95      -0.000020276543
 96      -0.000191213166
 97       0.001917672207
 98      -0.000323280137
 99      -0.000040728362
100      -0.000027529899
101       0.000010374114
102      -0.000621335833
103       0.000135805029
104       0.000154296129
105      -0.000150716776
106       0.000585430198
107       0.000330913864
108      -0.000081447712
109      -0.000024509067
110       0.000036250046
111      -0.000010885153
112       0.000016841998
113       0.000231220923
114       0.000047914699
115      -0.000123043514
116       0.000152400083
117      -0.000057009460
118       0.000040548765
119      -0.000027193133
120       0.000005968769
121      -0.000028031126
122       0.000021933514
123      -0.000004579387
124       0.000025162209
125       0.000031620987
126      -0.000162902468
127      -0.001769998022
128       0.007995639877
129      -0.008513101954
130      -0.000253375935
131      -0.000013575062
132      -0.000075386599
133       0.006902889936
134       0.002706376550
135       0.000282100169
136      -0.000855220504
137       0.000870003206
138      -0.000440760008
139      -0.000248545714
140       0.000012607040
141       0.000029695279
142       0.000223487157
143       0.000470072829
144      -0.002445858123
145      -0.000001194553
146      -0.000182298914
147       0.002151803618
148       0.002153321314
149      -0.000010797110
150      -0.000461466407
151      -0.000244705347
152      -0.000030464863
153       0.000016017298
154      -0.000078995329
155      -0.000531754994
156       0.000007899857
157      -0.000041683587
158       0.000923276617
159      -0.002027227733
160       0.003974432030
161       0.000322441543
162       0.000154710628
163      -0.000038265246
164      -0.002335671004
165      -0.000809523134
166       0.000519507065
167      -0.000147619919
168       0.001665992940
169       0.000886982758
170      -0.000035222495
171       0.000033360282
172       0.000025183807
173       0.000033409250
174       0.000069005205
175       0.001101976548
176       0.000369152991
177      -0.000455412379
178      -0.000556545934
179      -0.000891117231
180       0.000002023173
181       0.000082145940
182       0.000050025035
183       0.000130399405
184       0.000029323959
185      -0.000065360378
186      -0.000024961502
187       0.000030617260
188      -0.000168606417
189      -0.000828204076
190       0.004768772076
191      -0.001001144485
192       0.000000332230
193      -0.000012447152
194      -0.000032220307
195      -0.005160915058
196       0.003832999258
197       0.002268735982
198       0.001136951103
199      -0.001407742098
200      -0.000905263019
201      -0.000223974043
202      -0.000208110994
203       0.000206347462
204       0.000079472549
205      -0.000371161781
206      -0.000437258554
207      -0.001392304143
208       0.001120123242
209       0.000392839157
210      -0.003743122191
211      -0.000459586339
212       0.000246430313
213      -0.000221000842
214       0.000085770964
215      -0.000326430086
216      -0.000019785559
217      -0.000107048609
218       0.000056056247
219       0.001032744683
220       0.001362704162
221       0.000026011514
222      -0.000098078003
223       0.000008028702
224      -0.000100328660
225      -0.001004968090
226      -0.000145413997
227      -0.000046537590
228      -0.000064192516
229       0.000096859141
230      -0.000008518407
231      -0.000181239096
232       0.000440844355
233      -0.000108114095
234      -0.000126875223
235       0.000090906076
 Sym=     1a
 Ene= -1.92064968495349E+01
 Spin= Alpha
 Occup= 2.000000
  1       0.000001552349
  2      -0.000017611387
  3       0.000179814882
  4      -0.000686338389
  5       0.000066437161
  6       0.000014310426
  7      -0.000015739551
  8       0.000009665932
  9      -0.000164621782
 10       0.000136734320
 11      -0.000127351162
 12       0.000169566364
 13      -0.000351023003
 14       0.000066049944
 15       0.000003561676
 16       0.000001173815
 17       0.000005247681
 18       0.000003145327
 19       0.000027473276
 20       0.000001865827
 21      -0.000015025226
 22      -0.000016948190
 23      -0.000012829545
 24      -0.000081438553
 25       0.000008079475
 26       0.000000832712
 27      -0.000000784095
 28       0.000005758006
 29      -0.000002643855
 30      -0.000000731573
 31       0.000001571354
 32       0.001602877305
 33       0.002417333511
 34      -0.000598826598
 35       0.003092462238
 36      -0.000004869875
 37       0.000048173422
 38       0.000011060639
 39       0.000025522316
 40      -0.000285177221
 41      -0.000848413454
 42      -0.000326685218
 43      -0.000900999176
 44      -0.000657405203
 45       0.000066513318
 46      -0.000037899095
 47      -0.000033394535
 48       0.000002694658
 49      -0.000025017248
 50      -0.000016898247
 51      -0.000015812082
 52       0.000100604618
 53       0.000044712460
 54       0.000183673447
 55       0.000136441935
 56      -0.000030543182
 57       0.000037151420
 58      -0.000028406144
 59      -0.000026543304
 60      -0.000025386650
 61      -0.000025119313
 62       0.000115714867
 63       0.435111574515
 64       0.639385049718
 65       0.037702871420
 66      -0.032285990436
 67       0.006662709629
 68      -0.001158490868
 69       0.001796827829
 70       0.000761442808
 71       0.003052401856
 72      -0.005077359854
 73      -0.002045546434
 74      -0.000234992926
 75      -0.000632884242
 76      -0.000284770113
 77      -0.000240225403
 78      -0.000121742308
 79       0.000041965802
 80       0.000037409836
 81       0.000171650509
 82       0.001443959063
 83       0.000767064733
 84      -0.000259350205
 85      -0.000305562164
 86      -0.000928587263
 87       0.000139946845
 88      -0.000044973956
 89       0.000115676296
 90      -0.000118564073
 91      -0.000028218806
 92      -0.000334859972
 93      -0.000065123264
 94      -0.000013920477
 95      -0.000022426634
 96      -0.000156890255
 97       0.001820136683
 98      -0.000202388880
 99      -0.000057954914
100       0.000003756024
101       0.000017865836
102      -0.000454225705
103      -0.000501772419
104      -0.000003361917
105       0.000057934756
106      -0.000641330430
107      -0.000254540394
108      -0.000077542411
109      -0.000050030345
110       0.000029460192
111       0.000004805840
112      -0.000009489407
113       0.000210367293
114       0.000154778799
115      -0.000124340124
116       0.000030688773
117       0.000161031890
118       0.000001400988
119      -0.000043466130
120      -0.000038899212
121      -0.000016657176
122       0.000008864990
123       0.000028618981
124      -0.000001364917
125       0.000007697166
126      -0.000041533516
127       0.001256353718
128      -0.003877306760
129       0.004731366084
130       0.000361593141
131      -0.000025741102
132      -0.000042103206
133      -0.002538535595
134       0.000092258352
135       0.000400179714
136       0.000243102583
137      -0.001339359224
138      -0.000318311952
139       0.000005254106
140      -0.000074634442
141       0.000039246455
142       0.000077415031
143      -0.000041333750
144       0.001066854888
145       0.000696887618
146      -0.000466552047
147      -0.000761316686
148       0.000110164069
149      -0.000084568078
150       0.000145823608
151       0.000003637286
152      -0.000028029562
153      -0.000080834898
154      -0.000044758350
155       0.000032096059
156       0.000020075342
157      -0.000100128598
158      -0.002313095672
159       0.008999353846
160      -0.011029621107
161      -0.000268262043
162      -0.000138806502
163       0.000094346754
164       0.006004502881
165       0.001784651970
166      -0.001956479948
167      -0.000005358642
168      -0.000986244626
169       0.000516224662
170      -0.000172264930
171      -0.000236124102
172       0.000012236152
173       0.000420931023
174      -0.000064536788
175      -0.001875122072
176      -0.001990092211
177      -0.000359435870
178       0.002109542540
179       0.000715222475
180       0.000385311686
181      -0.000289593159
182      -0.000046841556
183      -0.000442841552
184      -0.000011967716
185      -0.000515308065
186      -0.000058853417
187       0.000033471771
188      -0.000188021398
189      -0.000707733690
190       0.004987744801
191      -0.000939225537
192      -0.000024487591
193      -0.000071707581
194       0.000016687909
195      -0.003002333155
196      -0.006411614083
197      -0.000661704840
198       0.000391622285
199       0.001811462124
200       0.000471411191
201      -0.000291610404
202      -0.000012292518
203       0.000105991554
204      -0.000334356087
205       0.000321125060
206      -0.001205368516
207       0.000936998995
208       0.000449319296
209      -0.003054043880
210       0.002412351283
211       0.000158134982
212       0.000247524504
213       0.000463339188
214       0.000208026326
215       0.000085791479
216      -0.000156094475
217      -0.000001926927
218       0.000026866323
219      -0.000067137402
220      -0.000254882717
221      -0.000164418984
222       0.000045012393
223      -0.000084056622
224       0.000024535277
225       0.000915637808
226       0.001581923181
227       0.000019685591
228       0.000125371019
229       0.000063800174
230       0.000032295960
231       0.001193583409
232       0.001914550200
233      -0.000017996800
234       0.000129264602
235      -0.000026431570
 Sym=     1a
 Ene= -1.91328181308888E+01
 Spin= Alpha
 Occup= 2.000000
  1      -0.000000197345
  2       0.000002370311
  3      -0.000020060192
  4       0.000039819415
  5      -0.000019230615
  6      -0.000001337343
  7      -0.000004911323
  8       0.000002192186
  9       0.000006493780
 10       0.000020550057
 11      -0.000007901367
 12      -0.000108087932
 13      -0.000031715613
 14      -0.000047470852
 15      -0.000001837634
 16       0.000004364528
 17      -0.000001319607
 18       0.000007921874
 19      -0.000004287791
 20       0.000011414477
 21      -0.000018465918
 22       0.000001762808
 23      -0.000026056973
 24       0.000015886120
 25       0.000002443716
 26      -0.000001959170
 27      -0.000002957420
 28       0.000000783643
 29       0.000000929251
 30      -0.000000192611
 31      -0.000000073221
 32       0.000015007000
 33       0.000033539617
 34      -0.000381637075
 35       0.002008784536
 36      -0.000155604190
 37      -0.000030508430
 38      -0.000004086229
 39       0.000007305804
 40       0.000804115626
 41      -0.000394955187
 42      -0.000314027329
 43       0.000589446422
 44       0.000268456531
 45      -0.000322012821
 46      -0.000066561157
 47      -0.000028590960
 48       0.000020691432
 49      -0.000021923287
 50       0.000004804764
 51       0.000112446427
 52      -0.000054680560
 53      -0.000005840859
 54       0.000311817203
 55      -0.000186899125
 56      -0.000045345617
 57       0.000045658458
 58      -0.000026088732
 59      -0.000013057768
 60      -0.000005395746
 61       0.000013996319
 62       0.000091351834
 63       0.000014088388
 64       0.000026737263
 65      -0.000321515693
 66       0.001837718686
 67      -0.000158664409
 68      -0.000036420864
 69       0.000006601713
 70       0.000008760419
 71       0.000636765083
 72       0.000679948425
 73      -0.000002444415
 74       0.000592530596
 75       0.000016900523
 76       0.000037279161
 77      -0.000070521968
 78      -0.000022081434
 79       0.000030603628
 80      -0.000023625167
 81      -0.000013736096
 82       0.000097531558
 83       0.000075910197
 84      -0.000126694718
 85       0.000071957771
 86       0.000378277349
 87       0.000012199254
 88       0.000026361602
 89       0.000053146125
 90       0.000063525014
 91       0.000034934543
 92       0.000080053115
 93      -0.000008596384
 94       0.435075814668
 95       0.639483001375
 96       0.036800500363
 97      -0.032514755060
 98       0.010647188242
 99      -0.002303685550
100      -0.000704874685
101       0.000425922735
102       0.006834998021
103       0.002107124132
104      -0.001258341725
105       0.000020083252
106       0.000017702179
107      -0.000000790096
108      -0.000122112628
109      -0.000086843062
110      -0.000057209409
111       0.000281554226
112       0.000182814778
113       0.000644592986
114       0.000423086889
115       0.000210582259
116      -0.001214705077
117      -0.000826169398
118       0.000042678425
119      -0.000087012163
120      -0.000030330526
121      -0.000045980603
122      -0.000024634430
123      -0.000063581030
124      -0.000094282495
125       0.000005567826
126      -0.000029052627
127       0.000354441458
128      -0.000429055100
129      -0.000899921839
130       0.000156214949
131       0.000001932501
132      -0.000020846215
133      -0.000652804881
134       0.000096243642
135       0.000086789105
136      -0.000733863459
137       0.000148409194
138       0.000592525462
139      -0.000011377119
140      -0.000012712140
141      -0.000002602181