
                                 *****************
                                 * O   R   C   A *
                                 *****************

                                            #,                                       
                                            ###                                      
                                            ####                                     
                                            #####                                    
                                            ######                                   
                                           ########,                                 
                                     ,,################,,,,,                         
                               ,,#################################,,                 
                          ,,##########################################,,             
                       ,#########################################, ''#####,          
                    ,#############################################,,   '####,        
                  ,##################################################,,,,####,       
                ,###########''''           ''''###############################       
              ,#####''   ,,,,##########,,,,          '''####'''          '####       
            ,##' ,,,,###########################,,,                        '##       
           ' ,,###''''                  '''############,,,                           
         ,,##''                                '''############,,,,        ,,,,,,###''
      ,#''                                            '''#######################'''  
     '                                                          ''''####''''         
             ,#######,   #######,   ,#######,      ##                                
            ,#'     '#,  ##    ##  ,#'     '#,    #''#        ,####,   ,####,        
            ##       ##  ##   ,#'  ##            #'  '#       #'       #'  '#        
            ##       ##  #######   ##           ,######,      #####,   #    #        
            '#,     ,#'  ##    ##  '#,     ,#' ,#      #,     #,   #   #,  ,#        
             '#######'   ##     ##  '#######'  #'      '#     '####' # '####'        



                #########################################################
                #                        -***-                          #
                #          Department of theory and spectroscopy        #
                #                                                       #
                #                      Frank Neese                      #
                #                                                       #
                #     Directorship, Architecture, Infrastructure        #
                #                    SHARK, DRIVERS                     #
                #        Core code/Algorithms in most modules           #
                #                                                       #
                #        Max Planck Institute fuer Kohlenforschung      #
                #                Kaiser Wilhelm Platz 1                 #
                #                 D-45470 Muelheim/Ruhr                 #
                #                      Germany                          #
                #                                                       #
                #                  All rights reserved                  #
                #                        -***-                          #
                #########################################################


                         Program Version 6.0.1  -  RELEASE   -


 With contributions from (in alphabetic order):
[Max-Planck-Institut fuer Kohlenforschung]                               
  Daniel Aravena         : Magnetic Suceptibility                        
  Michael Atanasov       : Ab Initio Ligand Field Theory (pilot matlab implementation)
  Alexander A. Auer      : GIAO ZORA, VPT2 properties, NMR spectrum      
  Ute Becker             : All parallelization in ORCA, NUMFREQ, NUMCALC 
  Giovanni Bistoni       : ED, misc. LED, open-shell LED, HFLD           
  Martin Brehm           : Molecular dynamics                            
  Dmytro Bykov           : pre 5.0 version of the SCF Hessian            
  Marcos Casanova-Páez   : Triplet and SCS-CIS(D). UHF-(DLPNO)-IP/EA/STEOM-CCSD. UHF-CVS-IP/STEOM-CCSD   
  Vijay G. Chilkuri      : MRCI spin determinant printing, contributions to CSF-ICE 
  Pauline Colinet        : FMM embedding                                 
  Dipayan Datta          : RHF DLPNO-CCSD density                        
  Achintya Kumar Dutta   : EOM-CC, STEOM-CC                              
  Nicolas Foglia         : Exact transition moments, OPA infrastructure, MCD improvements    
  Dmitry Ganyushin       : Spin-Orbit,Spin-Spin,Magnetic field MRCI      
  Miquel Garcia-Rates    : C-PCM and meta-GGA Hessian, CCSD/C-PCM, Gaussian charge scheme 
  Tiago L. C. Gouveia    : GS-ROHF, GS-ROCIS                             
  Yang Guo               : DLPNO-NEVPT2, F12-NEVPT2, CIM, IAO-localization        
  Andreas Hansen         : Spin unrestricted coupled pair/coupled cluster methods 
  Ingolf Harden          : AUTO-CI MPn and infrastructure                
  Benjamin Helmich-Paris : MC-RPA, TRAH-(SCF,CASSCF), AVAS, COSX integrals, SCF dyn. polar. 
  Lee Huntington         : MR-EOM, pCC                                   
  Robert Izsak           : Overlap fitted RIJCOSX, COSX-SCS-MP3, EOM     
  Riya Kayal             : Wick's Theorem for AUTO-CI, AUTO-CI UHF-CCSDT 
  Emily Kempfer          : AUTO-CI, RHF CISDT and CCSDT                  
  Christian Kollmar      : KDIIS, OOCD, Brueckner-CCSD(T), CCSD density, CASPT2, CASPT2-K, improved NEVPT2 
  Axel Koslowski         : Symmetry handling                             
  Simone Kossmann        : meta-GGA functionals, TD-DFT gradient, OOMP2, (MP2 Hessian; deprecated post 5.0) 
  Lucas Lang             : DCDCAS                                        
  Marvin Lechner         : AUTO-CI (C++ implementation), FIC-MRCC        
  Spencer Leger          : CASSCF response                               
  Dagmar Lenk            : GEPOL surface, SMD, ORCA-2-JSON               
  Dimitrios Liakos       : Extrapolation schemes; Compound Job, initial MDCI parallelization 
  Dimitrios Manganas     : Further ROCIS development; embedding schemes. LFT, Crystal Embedding 
  Dimitrios Pantazis     : SARC Basis sets                               
  Anastasios Papadopoulos: AUTO-CI, single reference methods and gradients 
  Taras Petrenko         : pre 6.0 DFT Hessian and TD-DFT gradient, (ASA, deprecated), ECA, 1-Electron XAS/XES, NRVS 
  Peter Pinski           : DLPNO-MP2, DLPNO-MP2 Gradient                 
  Christoph Reimann      : Effective Core Potentials                     
  Marius Retegan         : Local ZFS, SOC                                
  Christoph Riplinger    : Optimizer, TS searches, QM/MM, DLPNO-CCSD(T), (RO)-DLPNO pert. Triples 
  Michael Roemelt        : Original ROCIS implementation                 
  Masaaki Saitow         : Open-shell DLPNO-CCSD energy and density      
  Barbara Sandhoefer     : DKH picture change effects                    
  Kantharuban Sivalingam : CASSCF convergence/infrastructure, NEVPT2 and variants, FIC-MRCI 
  Bernardo de Souza      : ESD, SOC TD-DFT                               
  Georgi L. Stoychev     : AutoAux, RI-MP2 NMR, DLPNO-MP2 response, X2C  
  Van Anh Tran           : RI-MP2 g-tensors                              
  Willem Van den Heuvel  : Paramagnetic NMR                              
  Zikuan Wang            : NOTCH, Electric field optimization            
  Frank Wennmohs         : Technical directorship and infrastructure     
  Hang Xu                : AUTO-CI-Response properties                   
                                                                         
[FACCTs GmbH]                                                            
  Markus Bursch, Miquel Garcia-Rates, Christoph Riplinger, Bernardo de Souza, Georgi L. Stoychev 
                                                                 
  APM, Basis sets (HGBS, AHGBS, def-TZVP (Ac-Lr), def2-XVPD (La-Lu)), CI-OPT, improved COSX, DLPNO-Multilevel,           
  DOCKER, DRACO, updates on ESD, GOAT, IRC, LR-CPCM, MBIS, meta-GGA TD-DFT gradient, ML-optimized integration grids, 
  MM, NACMEs, nearIR, NEB, NEB-TS, NL-DFT gradient (VV10), 2- and 3-layer-ONIOM, interface openCOSMO-RS, QMMM,   
  Crystal-QMMM, SF, symmetry and pop. for TD-DFT, r2SCAN hybrids, SOLVATOR                                   
                                                                         
[Other institutions]                                                     
  V. Asgeirsson          : NEB                                           
  Christoph Bannwarth    : sTDA-DFT, sTD-DFT, PBEh-3c, B97-3c, D3        
  Sebastian Ehlert       : rSCAN, r2SCAN, r2SCAN-3c, D4, dhf basis sets  
  Marvin Friede          : D4 for Fr, Ra, Ac-Lr                          
  Lars Goerigk           : TD-DFT with DH, B97 family of functionals     
  Stefan Grimme          : VdW corrections, initial TS optimization, DFT functionals, gCP, sTDA/sTD-DF 
  Waldemar Hujo          : DFT-NL                                        
  H. Jonsson             : NEB                                           
  Holger Kruse           : gCP                                           
  Marcel Mueller         : wB97X-3c, vDZP basis set                      
  Hagen Neugebauer       : wr2SCAN                                       
  Tobias Risthaus        : range-separated hybrid DFT                    
  Lukas Wittmann         : regularized MP2, r2SCAN double-hybrids, wr2SCAN        
                                                                         
We gratefully acknowledge several colleagues who have allowed us to      
interface, adapt or use parts of their codes:                            
  Ed Valeev, F. Pavosevic, A. Kumar             : LibInt (2-el integral package), F12 methods 
  Garnet Chan, S. Sharma, J. Yang, R. Olivares  : DMRG                   
  Ulf Ekstrom                                   : XCFun DFT Library      
  Mihaly Kallay                                 : mrcc  (arbitrary order and MRCC methods)
  Frank Weinhold                                : gennbo (NPA and NBO analysis)           
  Simon Mueller                                 : openCOSMO-RS                            
  Christopher J. Cramer and Donald G. Truhlar   : smd solvation model                     
  S Lehtola, MJT Oliveira, MAL Marques          : LibXC Library                           
  Liviu Ungur et al                             : ANISO software                          


 Your calculation uses the libint2 library for the computation of 2-el integrals
 For citations please refer to: http://libint.valeyev.net

 Your ORCA version has been built with support for libXC version: 6.2.2
 For citations please refer to: https://libxc.gitlab.io

 This ORCA versions uses:
   CBLAS   interface :  Fast vector & matrix operations
   LAPACKE interface :  Fast linear algebra routines
   SCALAPACK package :  Parallel linear algebra routines
   Shared memory     :  Shared parallel matrices
   BLAS/LAPACK       :  OpenBLAS 0.3.27  USE64BITINT DYNAMIC_ARCH NO_AFFINITY SkylakeX SINGLE_THREADED
        Core in use  :  SkylakeX
   Copyright (c) 2011-2014, The OpenBLAS Project


NOTE: MaxCore=5000 MB was set to SCF,MP2,MDCI,CIPSI,MRCI and CIS
      => If you want to overwrite this, your respective input block should be placed after the MaxCore statement
Warning: RI is on but no J-basis has been assigned. Assigning Def2/J (nothing to worry about!)
================================================================================

----- Orbital basis set information -----
Your calculation utilizes the basis: def2-TZVP
   F. Weigend and R. Ahlrichs, Phys. Chem. Chem. Phys. 7, 3297 (2005).

----- AuxJ basis set information -----
Your calculation utilizes the auxiliary basis: def2/J
   F. Weigend, Phys. Chem. Chem. Phys. 8, 1057 (2006).

================================================================================
                                        WARNINGS
                       Please study these warnings very carefully!
================================================================================


================================================================================
                                       INPUT FILE
================================================================================
NAME = FEC.inp
|  1> ! B3LYP def2-TZVP TightSCF
|  2> 
|  3> %maxcore 5000
|  4> 
|  5> %pal
|  6> nprocs 20
|  7> end
|  8> 
|  9> * xyz 0 1
| 10> F          -1.89946483652512      0.66585406736162     -0.68826879533865
| 11>   O           0.04918238941389      0.91893198184799      0.43408247558914
| 12>   O           0.56002926603741     -1.17155858466395     -0.15016012188964
| 13>   O           2.16295874547399      0.41985885630053     -0.21473669009335
| 14>   C          -1.18026350942500      0.25671886272942      0.41467070816965
| 15>   C          -0.80121802577835     -1.21633882706428      0.28813262068444
| 16>   C           1.04878609173072      0.08136699703365     -0.00957502323774
| 17>   H          -1.75590753280754      0.52959839922983      1.29704028714260
| 18>   H          -0.85484990285716     -1.74029979994354      1.24351590167986
| 19>   H          -1.40595268526285     -1.72513195283128     -0.45940136270629
| 20> *
| 21> 
| 22>                          ****END OF INPUT****
================================================================================

                       ****************************
                       * Single Point Calculation *
                       ****************************

---------------------------------
CARTESIAN COORDINATES (ANGSTROEM)
---------------------------------
  F     -1.899465    0.665854   -0.688269
  O      0.049182    0.918932    0.434082
  O      0.560029   -1.171559   -0.150160
  O      2.162959    0.419859   -0.214737
  C     -1.180264    0.256719    0.414671
  C     -0.801218   -1.216339    0.288133
  C      1.048786    0.081367   -0.009575
  H     -1.755908    0.529598    1.297040
  H     -0.854850   -1.740300    1.243516
  H     -1.405953   -1.725132   -0.459401

----------------------------
CARTESIAN COORDINATES (A.U.)
----------------------------
  NO LB      ZA    FRAG     MASS         X           Y           Z
   0 F     9.0000    0    18.998   -3.589468    1.258282   -1.300640
   1 O     8.0000    0    15.999    0.092941    1.736530    0.820297
   2 O     8.0000    0    15.999    1.058302   -2.213925   -0.283762
   3 O     8.0000    0    15.999    4.087400    0.793418   -0.405794
   4 C     6.0000    0    12.011   -2.230375    0.485128    0.783614
   5 C     6.0000    0    12.011   -1.514083   -2.298547    0.544492
   6 C     6.0000    0    12.011    1.981918    0.153761   -0.018094
   7 H     1.0000    0     1.008   -3.318184    1.000796    2.451051
   8 H     1.0000    0     1.008   -1.615432   -3.288690    2.349904
   9 H     1.0000    0     1.008   -2.656866   -3.260027   -0.868143

--------------------------------
INTERNAL COORDINATES (ANGSTROEM)
--------------------------------
 F      0   0   0     0.000000000000     0.00000000     0.00000000
 O      1   0   0     2.262950909170     0.00000000     0.00000000
 O      2   1   0     2.229900166541    87.84986736     0.00000000
 O      3   2   1     2.259681951208    60.64351235   138.96998852
 C      1   2   3     1.378810252707    35.63810497    67.95032643
 C      3   2   1     1.430769019716    74.40252893   315.02828122
 C      4   3   2     1.182391115785    28.95408104   359.40196677
 H      5   1   2     1.088303890002   107.35285695   118.77461991
 H      6   3   2     1.090948529008   109.27310882   250.84734843
 H      6   3   2     1.087833401553   109.45270652   129.74769253

---------------------------
INTERNAL COORDINATES (A.U.)
---------------------------
 F      0   0   0     0.000000000000     0.00000000     0.00000000
 O      1   0   0     4.276357472840     0.00000000     0.00000000
 O      2   1   0     4.213900620748    87.84986736     0.00000000
 O      3   2   1     4.270180037547    60.64351235   138.96998852
 C      1   2   3     2.605573768260    35.63810497    67.95032643
 C      3   2   1     2.703761608162    74.40252893   315.02828122
 C      4   3   2     2.234395392014    28.95408104   359.40196677
 H      5   1   2     2.056596302585   107.35285695   118.77461991
 H      6   3   2     2.061593946030   109.27310882   250.84734843
 H      6   3   2     2.055707208266   109.45270652   129.74769253

---------------------
BASIS SET INFORMATION
---------------------
There are 4 groups of distinct atoms

 Group   1 Type F   : 11s6p2d1f contracted to 5s3p2d1f pattern {62111/411/11/1}
 Group   2 Type O   : 11s6p2d1f contracted to 5s3p2d1f pattern {62111/411/11/1}
 Group   3 Type C   : 11s6p2d1f contracted to 5s3p2d1f pattern {62111/411/11/1}
 Group   4 Type H   : 5s1p contracted to 3s1p pattern {311/1}

Atom   0F    basis set group =>   1
Atom   1O    basis set group =>   2
Atom   2O    basis set group =>   2
Atom   3O    basis set group =>   2
Atom   4C    basis set group =>   3
Atom   5C    basis set group =>   3
Atom   6C    basis set group =>   3
Atom   7H    basis set group =>   4
Atom   8H    basis set group =>   4
Atom   9H    basis set group =>   4
---------------------------------
AUXILIARY/J BASIS SET INFORMATION
---------------------------------
There are 4 groups of distinct atoms

 Group   1 Type F   : 12s5p4d2f1g contracted to 6s4p3d1f1g pattern {711111/2111/211/2/1}
 Group   2 Type O   : 12s5p4d2f1g contracted to 6s4p3d1f1g pattern {711111/2111/211/2/1}
 Group   3 Type C   : 12s5p4d2f1g contracted to 6s4p3d1f1g pattern {711111/2111/211/2/1}
 Group   4 Type H   : 5s2p1d contracted to 3s1p1d pattern {311/2/1}

Atom   0F    basis set group =>   1
Atom   1O    basis set group =>   2
Atom   2O    basis set group =>   2
Atom   3O    basis set group =>   2
Atom   4C    basis set group =>   3
Atom   5C    basis set group =>   3
Atom   6C    basis set group =>   3
Atom   7H    basis set group =>   4
Atom   8H    basis set group =>   4
Atom   9H    basis set group =>   4


           ************************************************************
           *        Program running with 20 parallel MPI-processes    *
           *              working on a common directory               *
           ************************************************************
------------------------------------------------------------------------------
                             ORCA STARTUP CALCULATIONS
                           -- RI-GTO INTEGRALS CHOSEN --
------------------------------------------------------------------------------
------------------------------------------------------------------------------
                   ___                                                        
                  /   \      - P O W E R E D   B Y -                         
                 /     \                                                     
                 |  |  |   _    _      __       _____    __    __             
                 |  |  |  | |  | |    /  \     |  _  \  |  |  /  |          
                  \  \/   | |  | |   /    \    | | | |  |  | /  /          
                 / \  \   | |__| |  /  /\  \   | |_| |  |  |/  /          
                |  |  |   |  __  | /  /__\  \  |    /   |      \           
                |  |  |   | |  | | |   __   |  |    \   |  |\   \          
                \     /   | |  | | |  |  |  |  | |\  \  |  | \   \       
                 \___/    |_|  |_| |__|  |__|  |_| \__\ |__|  \__/        
                                                                              
                      - O R C A' S   B I G   F R I E N D -                    
                                      &                                       
                       - I N T E G R A L  F E E D E R -                       
                                                                              
 v1 FN, 2020, v2 2021, v3 2022-2024                                           
------------------------------------------------------------------------------


----------------------
SHARK INTEGRAL PACKAGE
----------------------

Number of atoms                             ...     10
Number of basis functions                   ...    235
Number of shells                            ...     89
Maximum angular momentum                    ...      3
Integral batch strategy                     ... SHARK/LIBINT Hybrid
RI-J (if used) integral strategy            ... SPLIT-RIJ (Revised 2003 algorithm where possible)
Printlevel                                  ...      1
Contraction scheme used                     ... SEGMENTED contraction
Prescreening option                         ... SCHWARTZ
   Thresh                                   ... 2.500e-11
   Tcut                                     ... 2.500e-12
   Tpresel                                  ... 2.500e-12 
Coulomb Range Separation                    ... NOT USED
Exchange Range Separation                   ... NOT USED
Multipole approximations                    ... NOT USED
Finite Nucleus Model                        ... NOT USED
CABS basis                                  ... NOT available
Auxiliary Coulomb fitting basis             ... AVAILABLE
   # of basis functions in Aux-J            ...    376
   # of shells in Aux-J                     ...    120
   Maximum angular momentum in Aux-J        ...      4
Auxiliary J/K fitting basis                 ... NOT available
Auxiliary Correlation fitting basis         ... NOT available
Auxiliary 'external' fitting basis          ... NOT available

Checking pre-screening integrals            ... done (  0.0 sec) Dimension = 89
Check shell pair data                       ... done (  0.0 sec)
Shell pair information
Shell pair cut-off parameter TPreSel        ...   2.5e-12
Total number of shell pairs                 ...      4005
Shell pairs after pre-screening             ...      3773
Total number of primitive shell pairs       ...     12724
Primitive shell pairs kept                  ...      9160
          la=0 lb=0:    883 shell pairs
          la=1 lb=0:   1017 shell pairs
          la=1 lb=1:    297 shell pairs
          la=2 lb=0:    572 shell pairs
          la=2 lb=1:    328 shell pairs
          la=2 lb=2:    102 shell pairs
          la=3 lb=0:    286 shell pairs
          la=3 lb=1:    166 shell pairs
          la=3 lb=2:     95 shell pairs
          la=3 lb=3:     27 shell pairs

Calculating one electron integrals          ... done (  0.0 sec)
Calculating RI/J V-Matrix + Cholesky decomp.... done (  0.0 sec)
Calculating Nuclear repulsion               ... done (  0.0 sec) ENN=    322.219914204099 Eh

Diagonalization of the overlap matrix:
Smallest eigenvalue                        ... 3.986e-04
Time for diagonalization                   ...    0.005 sec
Threshold for overlap eigenvalues          ... 1.000e-07
Number of eigenvalues below threshold      ... 0
Time for construction of square roots      ...    0.004 sec
Total time needed                          ...    0.014 sec

-------------------
DFT GRID GENERATION
-------------------

General Integration Accuracy     IntAcc      ... 4.388
Radial Grid Type                 RadialGrid  ... OptM3 with GC (2021)
Angular Grid (max. ang.)         AngularGrid ... 4 (Lebedev-302)
Angular grid pruning method      GridPruning ... 4 (adaptive)
Weight generation scheme         WeightScheme... mBecke (2022)
Basis function cutoff            BFCut       ... 1.0000e-11
Integration weight cutoff        WCut        ... 1.0000e-14
Partially contracted basis set               ... off
Rotationally invariant grid construction     ... off
Angular grids for H and He will be reduced by one unit

Total number of grid points                  ...    52191
Total number of batches                      ...      822
Average number of points per batch           ...       63
Average number of grid points per atom       ...     5219

--------------------
COSX GRID GENERATION
--------------------

GRIDX 1
-------
General Integration Accuracy     IntAcc      ... 3.816
Radial Grid Type                 RadialGrid  ... OptM3 with GC (2021)
Angular Grid (max. ang.)         AngularGrid ... 1 (Lebedev-50)
Angular grid pruning method      GridPruning ... 4 (adaptive)
Weight generation scheme         WeightScheme... mBecke (2022)
Basis function cutoff            BFCut       ... 1.0000e-11
Integration weight cutoff        WCut        ... 1.0000e-14
Partially contracted basis set               ... on
Rotationally invariant grid construction     ... off
Angular grids for H and He will be reduced by one unit

Total number of grid points                  ...     6641
Total number of batches                      ...       59
Average number of points per batch           ...      112
Average number of grid points per atom       ...      664
UseSFitting                                  ... on

GRIDX 2
-------
General Integration Accuracy     IntAcc      ... 4.020
Radial Grid Type                 RadialGrid  ... OptM3 with GC (2021)
Angular Grid (max. ang.)         AngularGrid ... 2 (Lebedev-110)
Angular grid pruning method      GridPruning ... 4 (adaptive)
Weight generation scheme         WeightScheme... mBecke (2022)
Basis function cutoff            BFCut       ... 1.0000e-11
Integration weight cutoff        WCut        ... 1.0000e-14
Partially contracted basis set               ... on
Rotationally invariant grid construction     ... off
Angular grids for H and He will be reduced by one unit

Total number of grid points                  ...    15151
Total number of batches                      ...      124
Average number of points per batch           ...      122
Average number of grid points per atom       ...     1515
UseSFitting                                  ... on

GRIDX 3
-------
General Integration Accuracy     IntAcc      ... 4.338
Radial Grid Type                 RadialGrid  ... OptM3 with GC (2021)
Angular Grid (max. ang.)         AngularGrid ... 3 (Lebedev-194)
Angular grid pruning method      GridPruning ... 4 (adaptive)
Weight generation scheme         WeightScheme... mBecke (2022)
Basis function cutoff            BFCut       ... 1.0000e-11
Integration weight cutoff        WCut        ... 1.0000e-14
Partially contracted basis set               ... on
Rotationally invariant grid construction     ... off
Angular grids for H and He will be reduced by one unit

Total number of grid points                  ...    33505
Total number of batches                      ...      266
Average number of points per batch           ...      125
Average number of grid points per atom       ...     3350
UseSFitting                                  ... on
Initializing property integral containers    ... done (  0.0 sec)

SHARK setup successfully completed in   0.7 seconds

Maximum memory used throughout the entire STARTUP-calculation: 17.7 MB


           ************************************************************
           *        Program running with 20 parallel MPI-processes    *
           *              working on a common directory               *
           ************************************************************
-------------------------------------------------------------------------------
                                 ORCA GUESS
                   Start orbitals & Density for SCF / CASSCF
-------------------------------------------------------------------------------

------------
SCF SETTINGS
------------
Hamiltonian:
 Density Functional     Method          .... DFT(GTOs)
 Exchange Functional    Exchange        .... B88
   X-Alpha parameter    XAlpha          ....  0.666667
   Becke's b parameter  XBeta           ....  0.004200
 Correlation Functional Correlation     .... LYP
 LDA part of GGA corr.  LDAOpt          .... VWN-5
 Gradients option       PostSCFGGA      .... off
 Hybrid DFT is turned on
   Fraction HF Exchange ScalHFX         ....  0.200000
   Scaling of DF-GGA-X  ScalDFX         ....  0.720000
   Scaling of DF-GGA-C  ScalDFC         ....  0.810000
   Scaling of DF-LDA-C  ScalLDAC        ....  1.000000
   Perturbative correction              ....  0.000000
   NL short-range parameter             ....  4.800000
 RI-approximation to the Coulomb term is turned on
   Number of AuxJ basis functions       .... 376
   RIJ-COSX (HFX calculated with COS-X)).... on


General Settings:
 Integral files         IntName         .... FEC
 Hartree-Fock type      HFTyp           .... RHF
 Total Charge           Charge          ....    0
 Multiplicity           Mult            ....    1
 Number of Electrons    NEL             ....   54
 Basis Dimension        Dim             ....  235
 Nuclear Repulsion      ENuc            ....    322.2199142041 Eh

Convergence Acceleration:
 AO-DIIS                CNVDIIS         .... on
   Start iteration      DIISMaxIt       ....    12
   Startup error        DIISStart       ....  0.200000
   # of expansion vecs  DIISMaxEq       ....     5
   Bias factor          DIISBfac        ....   1.050
   Max. coefficient     DIISMaxC        ....  10.000
 MO-DIIS                CNVKDIIS        .... off
 Trust-Rad. Augm. Hess. CNVTRAH         .... auto
   Auto Start mean grad. ratio tolernc. ....  1.125000
   Auto Start start iteration           ....    50
   Auto Start num. interpolation iter.  ....    10
   Max. Number of Micro iterations      ....    24
   Max. Number of Macro iterations      .... Maxiter - #DIIS iter
   Number of Davidson start vectors     ....     2
   Converg. threshold    (grad. norm)   ....   1.000e-05
   Grad. Scal. Fac. for Micro threshold ....   0.100
   Minimum threshold for Micro iter.    ....   1.000e-02
   NR start threshold (gradient norm)   ....   1.000e-04
   Initial trust radius                 ....   0.400
   Minimum AH scaling param. (alpha)    ....   1.000
   Maximum AH scaling param. (alpha)    .... 1000.000
   Quad. conv. algorithm                .... NR
   White noise on init. David. guess    .... on
   Maximum white noise                  ....   0.010
   Pseudo random numbers                .... off
   Inactive MOs                         .... canonical
   Orbital update algorithm             .... Taylor
   Preconditioner                       .... Diag
   Full preconditioner red. dimension   ....   250
 SOSCF                  CNVSOSCF        .... on
   Start iteration      SOSCFMaxIt      ....   150
   Startup grad/error   SOSCFStart      ....  0.003300
   Hessian update       SOSCFHessUp     .... L-BFGS
 Level Shifting         CNVShift        .... on
   Level shift para.    LevelShift      ....    0.2500
   Turn off err/grad.   ShiftErr        ....    0.0010
 Zerner damping         CNVZerner       .... off
 Static damping         CNVDamp         .... on
   Fraction old density DampFac         ....    0.7000
   Max. Damping (<1)    DampMax         ....    0.9800
   Min. Damping (>=0)   DampMin         ....    0.0000
   Turn off err/grad.   DampErr         ....    0.1000

SCF Procedure:
 Maximum # iterations   MaxIter         ....   125
 SCF integral mode      SCFMode         .... Direct
   Integral package                     .... SHARK and LIBINT hybrid scheme
 Reset frequency        DirectResetFreq ....    20
 Integral Threshold     Thresh          ....  2.500e-11 Eh
 Primitive CutOff       TCut            ....  2.500e-12 Eh

Convergence Tolerance:
 Convergence Check Mode ConvCheckMode   .... Total+1el-Energy
 Convergence forced     ConvForced      .... 0
 Energy Change          TolE            ....  1.000e-08 Eh
 1-El. energy change                    ....  1.000e-05 Eh
 Orbital Gradient       TolG            ....  1.000e-05
 Orbital Rotation angle TolX            ....  1.000e-05
 DIIS Error             TolErr          ....  5.000e-07

------------------------------
INITIAL GUESS: MODEL POTENTIAL
------------------------------
Loading Hartree-Fock densities                     ... done
Calculating cut-offs                               ... done
Initializing the effective Hamiltonian             ... done
Setting up the integral package (SHARK)            ... done
Starting the Coulomb interaction                   ... done (   0.0 sec)
Making the grid                                    ... done (   0.1 sec)
Mapping shells                                     ... done
Starting the XC term evaluation                    ... done (   0.0 sec)
  promolecular density results
     # of electrons  =     53.998016892
     EX              =    -50.995290803
     EC              =     -1.942248870
     EX+EC           =    -52.937539673
Transforming the Hamiltonian                       ... done (   0.0 sec)
Diagonalizing the Hamiltonian                      ... done (   0.0 sec)
Back transforming the eigenvectors                 ... done (   0.0 sec)
Now organizing SCF variables                       ... done
                      ------------------
                      INITIAL GUESS DONE (   0.2 sec)
                      ------------------
             **** ENERGY FILE WAS UPDATED (FEC.en.tmp) ****
Finished Guess after   0.7 sec
Maximum memory used throughout the entire GUESS-calculation: 12.6 MB


           ************************************************************
           *        Program running with 20 parallel MPI-processes    *
           *              working on a common directory               *
           ************************************************************

-------------------------------------------------------------------------------------------
                                      ORCA LEAN-SCF
                              memory conserving SCF solver
-------------------------------------------------------------------------------------------

----------------------------------------D-I-I-S--------------------------------------------
Iteration    Energy (Eh)           Delta-E    RMSDP     MaxDP     DIISErr   Damp  Time(sec)
-------------------------------------------------------------------------------------------
               ***  Starting incremental Fock matrix formation  ***
    1    -441.4232438853052827     0.00e+00  1.62e-03  6.40e-02  3.11e-01  0.700   0.5
    2    -441.5265990620306411    -1.03e-01  9.84e-04  3.44e-02  1.11e-01  0.700   0.4
                               ***Turning on AO-DIIS***
    3    -441.5584448867357423    -3.18e-02  3.61e-04  7.62e-03  2.90e-02  0.700   0.3
    4    -441.5807035756824916    -2.23e-02  5.34e-04  1.32e-02  1.41e-02  0.000   0.3
    5    -441.6323423981137921    -5.16e-02  1.70e-04  4.73e-03  5.00e-03  0.000   0.3
                              *** Initializing SOSCF ***
---------------------------------------S-O-S-C-F--------------------------------------
Iteration    Energy (Eh)           Delta-E    RMSDP     MaxDP     MaxGrad    Time(sec)
--------------------------------------------------------------------------------------
    6    -441.6324760734081565    -1.34e-04  5.21e-05  1.15e-03  2.35e-03     0.4
               *** Restarting incremental Fock matrix formation ***
    7    -441.6324965798107769    -2.05e-05  3.40e-05  8.18e-04  3.62e-04     0.4
    8    -441.6324903153597461     6.26e-06  1.81e-05  5.68e-04  8.33e-04     0.4
    9    -441.6325001057565487    -9.79e-06  5.94e-06  2.22e-04  8.53e-05     0.4
   10    -441.6324998106342719     2.95e-07  3.77e-06  1.41e-04  1.27e-04     0.4
   11    -441.6325002354406024    -4.25e-07  2.75e-07  6.23e-06  2.23e-06     0.4
                  *** Gradient check signals convergence ***

               *****************************************************
               *                     SUCCESS                       *
               *           SCF CONVERGED AFTER  11 CYCLES          *
               *****************************************************

Recomputing exchange energy using gridx3       ... done (    0.485 sec)
Old exchange energy                            :    -10.278631657 Eh
New exchange energy                            :    -10.278617223 Eh
Exchange energy change after final integration :      0.000014434 Eh
Total energy after final integration           :   -441.632485801 Eh
             **** ENERGY FILE WAS UPDATED (FEC.en.tmp) ****

----------------
TOTAL SCF ENERGY
----------------

Total Energy       :       -441.63248580139947 Eh          -12017.43089 eV

Components:
Nuclear Repulsion  :        322.21991420409881 Eh            8768.04962 eV
Electronic Energy  :       -763.85241443953942 Eh          -20785.48091 eV
One Electron Energy:      -1245.13830011233813 Eh          -33881.93567 eV
Two Electron Energy:        481.28588567279871 Eh           13096.45476 eV

Virial components:
Potential Energy   :       -881.61622765152288 Eh          -23989.99718 eV
Kinetic Energy     :        439.98374185012335 Eh           11972.56629 eV
Virial Ratio       :          2.00374728380722

DFT components:
N(Alpha)           :       27.000012665145 electrons
N(Beta)            :       27.000012665145 electrons
N(Total)           :       54.000025330290 electrons
E(X)               :      -40.951349577944 Eh       
E(C)               :       -2.280046266230 Eh       
E(XC)              :      -43.231395844174 Eh       

---------------
SCF CONVERGENCE
---------------

  Last Energy change         ...    4.2481e-07  Tolerance :   1.0000e-08
  Last MAX-Density change    ...    6.2330e-06  Tolerance :   1.0000e-07
  Last RMS-Density change    ...    2.7544e-07  Tolerance :   5.0000e-09
  Last DIIS Error            ...    2.3470e-03  Tolerance :   5.0000e-07
  Last Orbital Gradient      ...    2.2324e-06  Tolerance :   1.0000e-05
  Last Orbital Rotation      ...    3.8259e-06  Tolerance :   1.0000e-05


----------------
ORBITAL ENERGIES
----------------

  NO   OCC          E(Eh)            E(eV) 
   0   2.0000     -24.703664      -672.2209 
   1   2.0000     -19.208962      -522.7024 
   2   2.0000     -19.206497      -522.6353 
   3   2.0000     -19.132818      -520.6304 
   4   2.0000     -10.364476      -282.0317 
   5   2.0000     -10.344273      -281.4820 
   6   2.0000     -10.273127      -279.5460 
   7   2.0000      -1.245390       -33.8888 
   8   2.0000      -1.178687       -32.0737 
   9   2.0000      -1.074366       -29.2350 
  10   2.0000      -1.066451       -29.0196 
  11   2.0000      -0.802564       -21.8389 
  12   2.0000      -0.705733       -19.2040 
  13   2.0000      -0.645540       -17.5660 
  14   2.0000      -0.584213       -15.8972 
  15   2.0000      -0.572783       -15.5862 
  16   2.0000      -0.538641       -14.6572 
  17   2.0000      -0.508250       -13.8302 
  18   2.0000      -0.485320       -13.2062 
  19   2.0000      -0.467951       -12.7336 
  20   2.0000      -0.449715       -12.2374 
  21   2.0000      -0.423453       -11.5227 
  22   2.0000      -0.405744       -11.0409 
  23   2.0000      -0.380917       -10.3653 
  24   2.0000      -0.363363        -9.8876 
  25   2.0000      -0.333921        -9.0864 
  26   2.0000      -0.321828        -8.7574 
  27   0.0000       0.010396         0.2829 
  28   0.0000       0.021267         0.5787 
  29   0.0000       0.035150         0.9565 
  30   0.0000       0.057082         1.5533 
  31   0.0000       0.078678         2.1409 
  32   0.0000       0.089537         2.4364 
  33   0.0000       0.108903         2.9634 
  34   0.0000       0.129801         3.5321 
  35   0.0000       0.153496         4.1768 
  36   0.0000       0.184915         5.0318 
  37   0.0000       0.206028         5.6063 
*Only the first 10 virtual orbitals were printed.

                    ********************************
                    * MULLIKEN POPULATION ANALYSIS *
                    ********************************

-----------------------
MULLIKEN ATOMIC CHARGES
-----------------------
   0 F :   -0.214895
   1 O :   -0.231528
   2 O :   -0.240837
   3 O :   -0.240039
   4 C :    0.241352
   5 C :   -0.008810
   6 C :    0.356754
   7 H :    0.096521
   8 H :    0.111263
   9 H :    0.130221
Sum of atomic charges:   -0.0000000

--------------------------------
MULLIKEN REDUCED ORBITAL CHARGES
--------------------------------
  0 F s       :     3.915202  s :     3.915202
      pz      :     1.618488  p :     5.284499
      px      :     1.791100
      py      :     1.874911
      dz2     :     0.003965  d :     0.014582
      dxz     :     0.004888
      dyz     :     0.002860
      dx2y2   :     0.001363
      dxy     :     0.001506
      f0      :     0.000096  f :     0.000613
      f+1     :     0.000183
      f-1     :     0.000080
      f+2     :     0.000094
      f-2     :     0.000116
      f+3     :     0.000021
      f-3     :     0.000021

  1 O s       :     3.772388  s :     3.772388
      pz      :     1.678679  p :     4.416754
      px      :     1.191826
      py      :     1.546248
      dz2     :     0.004877  d :     0.040309
      dxz     :     0.005835
      dyz     :     0.005905
      dx2y2   :     0.007837
      dxy     :     0.015855
      f0      :     0.000274  f :     0.002078
      f+1     :     0.000361
      f-1     :     0.000184
      f+2     :     0.000151
      f-2     :     0.000268
      f+3     :     0.000418
      f-3     :     0.000421

  2 O s       :     3.780619  s :     3.780619
      pz      :     1.687642  p :     4.417344
      px      :     1.316469
      py      :     1.413233
      dz2     :     0.004759  d :     0.040812
      dxz     :     0.006421
      dyz     :     0.006376
      dx2y2   :     0.014444
      dxy     :     0.008812
      f0      :     0.000284  f :     0.002061
      f+1     :     0.000268
      f-1     :     0.000237
      f+2     :     0.000272
      f-2     :     0.000152
      f+3     :     0.000411
      f-3     :     0.000437

  3 O s       :     3.786381  s :     3.786381
      pz      :     1.423980  p :     4.420961
      px      :     1.324304
      py      :     1.672677
      dz2     :     0.003116  d :     0.030738
      dxz     :     0.010355
      dyz     :     0.001376
      dx2y2   :     0.007917
      dxy     :     0.007974
      f0      :     0.000185  f :     0.001959
      f+1     :     0.000242
      f-1     :     0.000043
      f+2     :     0.000333
      f-2     :     0.000188
      f+3     :     0.000512
      f-3     :     0.000457

  4 C s       :     3.182907  s :     3.182907
      pz      :     0.785240  p :     2.349420
      px      :     0.708056
      py      :     0.856124
      dz2     :     0.034758  d :     0.205020
      dxz     :     0.056697
      dyz     :     0.035887
      dx2y2   :     0.039850
      dxy     :     0.037829
      f0      :     0.003912  f :     0.021300
      f+1     :     0.002954
      f-1     :     0.002208
      f+2     :     0.003075
      f-2     :     0.003279
      f+3     :     0.003351
      f-3     :     0.002522

  5 C s       :     3.218905  s :     3.218905
      pz      :     1.016011  p :     2.680679
      px      :     0.706576
      py      :     0.958092
      dz2     :     0.012853  d :     0.099351
      dxz     :     0.028621
      dyz     :     0.010496
      dx2y2   :     0.021219
      dxy     :     0.026162
      f0      :     0.000845  f :     0.009876
      f+1     :     0.001644
      f-1     :     0.000995
      f+2     :     0.001640
      f-2     :     0.000731
      f+3     :     0.001885
      f-3     :     0.002135

  6 C s       :     3.010957  s :     3.010957
      pz      :     0.795931  p :     2.296656
      px      :     0.764399
      py      :     0.736326
      dz2     :     0.022050  d :     0.303798
      dxz     :     0.070060
      dyz     :     0.043924
      dx2y2   :     0.073205
      dxy     :     0.094559
      f0      :     0.002785  f :     0.031836
      f+1     :     0.003095
      f-1     :     0.001939
      f+2     :     0.004045
      f-2     :     0.003718
      f+3     :     0.008180
      f-3     :     0.008074

  7 H s       :     0.882804  s :     0.882804
      pz      :     0.010420  p :     0.020675
      px      :     0.006088
      py      :     0.004166

  8 H s       :     0.867507  s :     0.867507
      pz      :     0.011549  p :     0.021230
      px      :     0.002773
      py      :     0.006908

  9 H s       :     0.848513  s :     0.848513
      pz      :     0.008464  p :     0.021266
      px      :     0.006254
      py      :     0.006548



                     *******************************
                     * LOEWDIN POPULATION ANALYSIS *
                     *******************************

----------------------
LOEWDIN ATOMIC CHARGES
----------------------
   0 F :    0.120458
   1 O :    0.282621
   2 O :    0.264387
   3 O :    0.151592
   4 C :   -0.398314
   5 C :   -0.240977
   6 C :   -0.585209
   7 H :    0.132634
   8 H :    0.133186
   9 H :    0.139623

-------------------------------
LOEWDIN REDUCED ORBITAL CHARGES
-------------------------------
  0 F s       :     3.624044  s :     3.624044
      pz      :     1.652902  p :     5.225805
      px      :     1.756179
      py      :     1.816725
      dz2     :     0.008559  d :     0.028364
      dxz     :     0.008831
      dyz     :     0.005627
      dx2y2   :     0.002306
      dxy     :     0.003041
      f0      :     0.000279  f :     0.001329
      f+1     :     0.000344
      f-1     :     0.000156
      f+2     :     0.000199
      f-2     :     0.000253
      f+3     :     0.000054
      f-3     :     0.000044

  1 O s       :     3.269789  s :     3.269789
      pz      :     1.560094  p :     4.335969
      px      :     1.252314
      py      :     1.523561
      dz2     :     0.011453  d :     0.104215
      dxz     :     0.018185
      dyz     :     0.008374
      dx2y2   :     0.023886
      dxy     :     0.042316
      f0      :     0.000601  f :     0.007406
      f+1     :     0.000833
      f-1     :     0.000378
      f+2     :     0.000516
      f-2     :     0.001225
      f+3     :     0.002215
      f-3     :     0.001637

  2 O s       :     3.271446  s :     3.271446
      pz      :     1.578587  p :     4.351261
      px      :     1.333564
      py      :     1.439110
      dz2     :     0.012216  d :     0.105514
      dxz     :     0.016791
      dyz     :     0.011131
      dx2y2   :     0.037938
      dxy     :     0.027438
      f0      :     0.000513  f :     0.007392
      f+1     :     0.000779
      f-1     :     0.000599
      f+2     :     0.001160
      f-2     :     0.000546
      f+3     :     0.001606
      f-3     :     0.002189

  3 O s       :     3.395037  s :     3.395037
      pz      :     1.342153  p :     4.378967
      px      :     1.479080
      py      :     1.557733
      dz2     :     0.008739  d :     0.067599
      dxz     :     0.016095
      dyz     :     0.002142
      dx2y2   :     0.022715
      dxy     :     0.017908
      f0      :     0.000602  f :     0.006806
      f+1     :     0.001079
      f-1     :     0.000158
      f+2     :     0.000858
      f-2     :     0.000520
      f+3     :     0.001750
      f-3     :     0.001839

  4 C s       :     2.788564  s :     2.788564
      pz      :     0.869903  p :     2.678261
      px      :     0.827858
      py      :     0.980499
      dz2     :     0.157026  d :     0.789415
      dxz     :     0.208035
      dyz     :     0.113797
      dx2y2   :     0.156534
      dxy     :     0.154023
      f0      :     0.021055  f :     0.142074
      f+1     :     0.021066
      f-1     :     0.015891
      f+2     :     0.018962
      f-2     :     0.023808
      f+3     :     0.022454
      f-3     :     0.018839

  5 C s       :     2.814392  s :     2.814392
      pz      :     1.042594  p :     2.894480
      px      :     0.813167
      py      :     1.038719
      dz2     :     0.067900  d :     0.463005
      dxz     :     0.106742
      dyz     :     0.074212
      dx2y2   :     0.113602
      dxy     :     0.100549
      f0      :     0.006189  f :     0.069101
      f+1     :     0.010747
      f-1     :     0.004626
      f+2     :     0.011385
      f-2     :     0.005734
      f+3     :     0.014313
      f-3     :     0.016107

  6 C s       :     2.739201  s :     2.739201
      pz      :     0.791142  p :     2.591950
      px      :     0.941158
      py      :     0.859650
      dz2     :     0.098740  d :     1.065559
      dxz     :     0.196689
      dyz     :     0.139161
      dx2y2   :     0.288749
      dxy     :     0.342220
      f0      :     0.012195  f :     0.188499
      f+1     :     0.015932
      f-1     :     0.012555
      f+2     :     0.026345
      f-2     :     0.022562
      f+3     :     0.049777
      f-3     :     0.049133

  7 H s       :     0.809984  s :     0.809984
      pz      :     0.029043  p :     0.057382
      px      :     0.016258
      py      :     0.012081

  8 H s       :     0.807312  s :     0.807312
      pz      :     0.032643  p :     0.059502
      px      :     0.008675
      py      :     0.018185

  9 H s       :     0.800255  s :     0.800255
      pz      :     0.025289  p :     0.060122
      px      :     0.017264
      py      :     0.017568



                      *****************************
                      * MAYER POPULATION ANALYSIS *
                      *****************************

  NA   - Mulliken gross atomic population
  ZA   - Total nuclear charge
  QA   - Mulliken gross atomic charge
  VA   - Mayer's total valence
  BVA  - Mayer's bonded valence
  FA   - Mayer's free valence

  ATOM       NA         ZA         QA         VA         BVA        FA
  0 F      9.2149     9.0000    -0.2149     1.0502     1.0502    -0.0000
  1 O      8.2315     8.0000    -0.2315     2.1378     2.1378     0.0000
  2 O      8.2408     8.0000    -0.2408     2.1403     2.1403    -0.0000
  3 O      8.2400     8.0000    -0.2400     2.2620     2.2620    -0.0000
  4 C      5.7586     6.0000     0.2414     4.0891     4.0891     0.0000
  5 C      6.0088     6.0000    -0.0088     3.8328     3.8328     0.0000
  6 C      5.6432     6.0000     0.3568     4.4968     4.4968    -0.0000
  7 H      0.9035     1.0000     0.0965     0.9624     0.9624    -0.0000
  8 H      0.8887     1.0000     0.1113     0.9594     0.9594     0.0000
  9 H      0.8698     1.0000     0.1302     0.9686     0.9686     0.0000

  Mayer bond orders larger than 0.100000
B(  0-F ,  4-C ) :   1.0450 B(  1-O ,  4-C ) :   1.0421 B(  1-O ,  6-C ) :   1.0797 
B(  2-O ,  5-C ) :   0.9470 B(  2-O ,  6-C ) :   1.1548 B(  3-O ,  6-C ) :   2.1839 
B(  4-C ,  5-C ) :   0.9747 B(  4-C ,  7-H ) :   0.9750 B(  5-C ,  8-H ) :   0.9459 
B(  5-C ,  9-H ) :   0.9558 

-------
TIMINGS
-------

Total SCF time: 0 days 0 hours 0 min 5 sec 

Total time                  ....       5.360 sec
Sum of individual times     ....       5.274 sec  ( 98.4%)

SCF preparation             ....       0.621 sec  ( 11.6%)
Fock matrix formation       ....       4.083 sec  ( 76.2%)
  Startup                   ....       0.065 sec  (  1.6% of F)
  Split-RI-J                ....       0.316 sec  (  7.7% of F)
  Chain of spheres X        ....       2.667 sec  ( 65.3% of F)
  XC integration            ....       0.890 sec  ( 21.8% of F)
    Basis function eval.    ....       0.130 sec  ( 14.6% of XC)
    Density eval.           ....       0.092 sec  ( 10.3% of XC)
    XC-Functional eval.     ....       0.027 sec  (  3.1% of XC)
    XC-Potential eval.      ....       0.197 sec  ( 22.2% of XC)
Diagonalization             ....       0.000 sec  (  0.0%)
Density matrix formation    ....       0.155 sec  (  2.9%)
Total Energy calculation    ....       0.047 sec  (  0.9%)
Population analysis         ....       0.025 sec  (  0.5%)
Orbital Transformation      ....       0.038 sec  (  0.7%)
Orbital Orthonormalization  ....       0.000 sec  (  0.0%)
DIIS solution               ....       0.209 sec  (  3.9%)
SOSCF solution              ....       0.096 sec  (  1.8%)
Finished LeanSCF after   5.4 sec

Maximum memory used throughout the entire LEANSCF-calculation: 20.0 MB

-------------------------   --------------------
FINAL SINGLE POINT ENERGY      -441.632485801399
-------------------------   --------------------



           ************************************************************
           *        Program running with 20 parallel MPI-processes    *
           *              working on a common directory               *
           ************************************************************

------------------------------------------------------------------------------
                              ORCA PROPERTY CALCULATIONS
------------------------------------------------------------------------------

GBWName                                 ... FEC.gbw
Number of atoms                         ...     10
Number of basis functions               ...    235
Max core memory                         ...   5000 MB

Electric properties:
Dipole moment                           ... YES
Quadrupole moment                       ...  NO
Static polarizability (Dipole/Dipole)   ...  NO
Static polarizability (Dipole/Quad.)    ...  NO
Static polarizability (Quad./Quad.)     ...  NO
Static polarizability (Velocity)        ...  NO

Atomic electric properties:
Dipole moment                           ...  NO
Quadrupole moment                       ...  NO
Static polarizability                   ...  NO

Choice of electric origin               ... Center of mass
Position of electric origin             ...    -0.124474     0.032385    -0.027524

General magnetic properties:
Magnetizability                         ...  NO

EPR properties:
g-Tensor (aka g-matrix)                 ...  NO
Zero-Field splitting spin-orbit         ...  NO
Zero-field splitting spin-spin          ...  NO
Hyperfine couplings                     ...  NO (   0 nuclei)
Quadrupole couplings                    ...  NO (   0 nuclei)
Contact density                         ...  NO (   0 nuclei)

NMR properties:
Chemical shifts                         ...  NO (   0 nuclei)
Spin-rotation constants                 ...  NO (   0 nuclei)
Spin-spin couplings                     ...  NO (   0 nuclei,    0 pairs)

Choice of magnetic origin               ... GIAO
Position of magnetic origin             ...     0.000000     0.000000     0.000000

Properties with geometric perturbations:
SCF Hessian                             ...  NO
IR spectrum                             ...  NO
VCD spectrum                            ...  NO
X-ray spectroscopy properties:
SCF XES/XAS/RIXS spectra                ...  NO


-------------
DIPOLE MOMENT
-------------

Method             : SCF
Type of density    : Electron Density
Multiplicity       :   1
Irrep              :   0
Energy             :  -441.6324858013994685 Eh
Relativity type    : 
Basis              : AO
                                X                 Y                 Z
Electronic contribution:      0.384637235       2.555227389      -1.803433613
Nuclear contribution   :     -1.840183293      -3.401907833       2.619362971
                        -----------------------------------------
Total Dipole Moment    :     -1.455546058      -0.846680444       0.815929358
                        -----------------------------------------
Magnitude (a.u.)       :      1.871155477
Magnitude (Debye)      :      4.756099248



--------------------
Rotational spectrum 
--------------------
 
Rotational constants in cm-1:             0.185828             0.079831             0.063943 
Rotational constants in MHz :          5570.996574          2393.271046          1916.951086 

Dipole components along the rotational axes: 
x,y,z [a.u.] :     1.377871    -0.998693     0.778014 
x,y,z [Debye]:     3.502270    -2.538475     1.977556 

 

Dipole moment calculation done in   0.0 sec 

Maximum memory used throughout the entire PROP-calculation: 10.1 MB

--------------------------------
SUGGESTED CITATIONS FOR THIS RUN
--------------------------------

Below you find a list of papers that are relevant to this ORCA run
We neither can nor want to force you to cite these papers, but we appreciate if you do
You receive ORCA, which is the product of decades of hard work by many enthusiastic individuals, for free
The only thing we kindly ask in return is that you cite our papers,
We deeply appreciate it, if you show your appreciation for ORCA by not just citing the generic ORCA reference.

Please note that relegating all ORCA citations to the supporting information does *not* help us.
SI sections are not indexed - citations you put there will not count into any citation statistics
But we need these citations in order to attract the funding resources that allow us to do what we are doing

Therefore, if you are a happy ORCA user, please consider citing a few of the papers listed below in the main body of your paper

In addition to the list printed below, the program has created the file FEC.bibtex that contains the list in bibtex format
You can import this file easily into all common literature databanks and citation aid programs


List of essential papers. We consider these as the minimum necessary citations

  1. Neese,F.
     Software update: the ORCA program system, version 5.0
     WIRES Comput. Molec. Sci., 2022 12(1)e1606
     doi.org/10.1002/wcms.1606

List of papers to cite with high priority. The work reported in these papers was absolutely
necessary for this run to complete.
Our perspective: the developers of density functionals and basis sets usually get cited in chemistry papers
Good! But without the algorithms to do something with them, the functionals or basis sets would not do anything.
Hence, in our opinion, the algorithm design and method developments papers are equally worthy of getting cited

  1. Neese,F.
     An improvement of the resolution of the identity approximation for the formation of the Coulomb matrix
     J. Comp. Chem., 2003 24(14)1740-1747
     doi.org/10.1002/jcc.10318
  2. Neese,F.; Wennmohs,F.; Hansen,A.; Becker,U.
     Efficient, approximate and parallel Hartree-Fock and hybrid DFT calculations. A 'chain-of-spheres' algorithm for the Hartree-Fock exchange
     Chem. Phys., 2009 356(1-3)98-109
     doi.org/10.1016/j.chemphys.2008.10.036
  3. Helmich-Paris,B.; de Souza,B.; Neese,F.; Izsák,R.
     An improved chain of spheres for exchange algorithm
     J. Chem. Phys., 2021 155 104109
     doi.org/doi: 10.1063/5.0058766.
  4. Neese,F.
     The SHARK Integral Generation and Digestion System
     J. Comp. Chem., 2022  1-16
     doi.org/10.1002/jcc.26942

List of suggested additional citations. These are papers that are important in the 'surrounding' of 
of this run, or papers that preceded the highly important papers. If you like your results we are grateful for a citation.

  1. Izsak,R.; Neese,F.
     An overlap fitted chain of spheres exchange method
     J. Chem. Phys., 2011 135 144105
     doi.org/10.1063/1.3646921
  2. Izsak,R.; Hansen,A.; Neese,F.
     The resolution of identity and chain of spheres approximations for the LPNO-CCSD singles Fock term
     Molec. Phys., 2012 110 2413-2417
     doi.org/10.1080/00268976.2012.687466
  3. Neese,F.
     The ORCA program system
     WIRES Comput. Molec. Sci., 2012 2(1)73-78
     doi.org/10.1002/wcms.81
  4. Izsak,R.; Neese,F.; Klopper,W.
     Robust fitting techniques in the chain of spheres approximation to the Fock exchange: The role of the complementary space
     J. Chem. Phys., 2013 139 
     doi.org/10.1063/1.4819264
  5. Neese,F.
     Software update: the ORCA program system, version 4.0
     WIRES Comput. Molec. Sci., 2018 8(1)1-6
     doi.org/10.1002/wcms.1327
  6. Neese,F.; Wennmohs,F.; Becker,U.; Riplinger,C.
     The ORCA quantum chemistry program package
     J. Chem. Phys., 2020 152 Art. No. L224108
     doi.org/10.1063/5.0004608

List of optional additional citations

  1. Neese,F.
     Approximate second-order SCF convergence for spin unrestricted wavefunctions
     Chem. Phys. Lett., 2000 325(1-3)93-98
     doi.org/10.1016/s0009-2614(00)00662-x

Timings for individual modules:

Sum of individual times          ...        8.250 sec (=   0.137 min)
Startup calculation              ...        1.243 sec (=   0.021 min)  15.1 %
SCF iterations                   ...        6.353 sec (=   0.106 min)  77.0 %
Property calculations            ...        0.654 sec (=   0.011 min)   7.9 %
                             ****ORCA TERMINATED NORMALLY****
TOTAL RUN TIME: 0 days 0 hours 0 minutes 9 seconds 81 msec
