
                                 *****************
                                 * O   R   C   A *
                                 *****************

                                            #,                                       
                                            ###                                      
                                            ####                                     
                                            #####                                    
                                            ######                                   
                                           ########,                                 
                                     ,,################,,,,,                         
                               ,,#################################,,                 
                          ,,##########################################,,             
                       ,#########################################, ''#####,          
                    ,#############################################,,   '####,        
                  ,##################################################,,,,####,       
                ,###########''''           ''''###############################       
              ,#####''   ,,,,##########,,,,          '''####'''          '####       
            ,##' ,,,,###########################,,,                        '##       
           ' ,,###''''                  '''############,,,                           
         ,,##''                                '''############,,,,        ,,,,,,###''
      ,#''                                            '''#######################'''  
     '                                                          ''''####''''         
             ,#######,   #######,   ,#######,      ##                                
            ,#'     '#,  ##    ##  ,#'     '#,    #''#        ,####,   ,####,        
            ##       ##  ##   ,#'  ##            #'  '#       #'       #'  '#        
            ##       ##  #######   ##           ,######,      #####,   #    #        
            '#,     ,#'  ##    ##  '#,     ,#' ,#      #,     #,   #   #,  ,#        
             '#######'   ##     ##  '#######'  #'      '#     '####' # '####'        



                #########################################################
                #                        -***-                          #
                #          Department of theory and spectroscopy        #
                #                                                       #
                #                      Frank Neese                      #
                #                                                       #
                #     Directorship, Architecture, Infrastructure        #
                #                    SHARK, DRIVERS                     #
                #        Core code/Algorithms in most modules           #
                #                                                       #
                #        Max Planck Institute fuer Kohlenforschung      #
                #                Kaiser Wilhelm Platz 1                 #
                #                 D-45470 Muelheim/Ruhr                 #
                #                      Germany                          #
                #                                                       #
                #                  All rights reserved                  #
                #                        -***-                          #
                #########################################################


                         Program Version 6.0.1  -  RELEASE   -


 With contributions from (in alphabetic order):
[Max-Planck-Institut fuer Kohlenforschung]                               
  Daniel Aravena         : Magnetic Suceptibility                        
  Michael Atanasov       : Ab Initio Ligand Field Theory (pilot matlab implementation)
  Alexander A. Auer      : GIAO ZORA, VPT2 properties, NMR spectrum      
  Ute Becker             : All parallelization in ORCA, NUMFREQ, NUMCALC 
  Giovanni Bistoni       : ED, misc. LED, open-shell LED, HFLD           
  Martin Brehm           : Molecular dynamics                            
  Dmytro Bykov           : pre 5.0 version of the SCF Hessian            
  Marcos Casanova-Páez   : Triplet and SCS-CIS(D). UHF-(DLPNO)-IP/EA/STEOM-CCSD. UHF-CVS-IP/STEOM-CCSD   
  Vijay G. Chilkuri      : MRCI spin determinant printing, contributions to CSF-ICE 
  Pauline Colinet        : FMM embedding                                 
  Dipayan Datta          : RHF DLPNO-CCSD density                        
  Achintya Kumar Dutta   : EOM-CC, STEOM-CC                              
  Nicolas Foglia         : Exact transition moments, OPA infrastructure, MCD improvements    
  Dmitry Ganyushin       : Spin-Orbit,Spin-Spin,Magnetic field MRCI      
  Miquel Garcia-Rates    : C-PCM and meta-GGA Hessian, CCSD/C-PCM, Gaussian charge scheme 
  Tiago L. C. Gouveia    : GS-ROHF, GS-ROCIS                             
  Yang Guo               : DLPNO-NEVPT2, F12-NEVPT2, CIM, IAO-localization        
  Andreas Hansen         : Spin unrestricted coupled pair/coupled cluster methods 
  Ingolf Harden          : AUTO-CI MPn and infrastructure                
  Benjamin Helmich-Paris : MC-RPA, TRAH-(SCF,CASSCF), AVAS, COSX integrals, SCF dyn. polar. 
  Lee Huntington         : MR-EOM, pCC                                   
  Robert Izsak           : Overlap fitted RIJCOSX, COSX-SCS-MP3, EOM     
  Riya Kayal             : Wick's Theorem for AUTO-CI, AUTO-CI UHF-CCSDT 
  Emily Kempfer          : AUTO-CI, RHF CISDT and CCSDT                  
  Christian Kollmar      : KDIIS, OOCD, Brueckner-CCSD(T), CCSD density, CASPT2, CASPT2-K, improved NEVPT2 
  Axel Koslowski         : Symmetry handling                             
  Simone Kossmann        : meta-GGA functionals, TD-DFT gradient, OOMP2, (MP2 Hessian; deprecated post 5.0) 
  Lucas Lang             : DCDCAS                                        
  Marvin Lechner         : AUTO-CI (C++ implementation), FIC-MRCC        
  Spencer Leger          : CASSCF response                               
  Dagmar Lenk            : GEPOL surface, SMD, ORCA-2-JSON               
  Dimitrios Liakos       : Extrapolation schemes; Compound Job, initial MDCI parallelization 
  Dimitrios Manganas     : Further ROCIS development; embedding schemes. LFT, Crystal Embedding 
  Dimitrios Pantazis     : SARC Basis sets                               
  Anastasios Papadopoulos: AUTO-CI, single reference methods and gradients 
  Taras Petrenko         : pre 6.0 DFT Hessian and TD-DFT gradient, (ASA, deprecated), ECA, 1-Electron XAS/XES, NRVS 
  Peter Pinski           : DLPNO-MP2, DLPNO-MP2 Gradient                 
  Christoph Reimann      : Effective Core Potentials                     
  Marius Retegan         : Local ZFS, SOC                                
  Christoph Riplinger    : Optimizer, TS searches, QM/MM, DLPNO-CCSD(T), (RO)-DLPNO pert. Triples 
  Michael Roemelt        : Original ROCIS implementation                 
  Masaaki Saitow         : Open-shell DLPNO-CCSD energy and density      
  Barbara Sandhoefer     : DKH picture change effects                    
  Kantharuban Sivalingam : CASSCF convergence/infrastructure, NEVPT2 and variants, FIC-MRCI 
  Bernardo de Souza      : ESD, SOC TD-DFT                               
  Georgi L. Stoychev     : AutoAux, RI-MP2 NMR, DLPNO-MP2 response, X2C  
  Van Anh Tran           : RI-MP2 g-tensors                              
  Willem Van den Heuvel  : Paramagnetic NMR                              
  Zikuan Wang            : NOTCH, Electric field optimization            
  Frank Wennmohs         : Technical directorship and infrastructure     
  Hang Xu                : AUTO-CI-Response properties                   
                                                                         
[FACCTs GmbH]                                                            
  Markus Bursch, Miquel Garcia-Rates, Christoph Riplinger, Bernardo de Souza, Georgi L. Stoychev 
                                                                 
  APM, Basis sets (HGBS, AHGBS, def-TZVP (Ac-Lr), def2-XVPD (La-Lu)), CI-OPT, improved COSX, DLPNO-Multilevel,           
  DOCKER, DRACO, updates on ESD, GOAT, IRC, LR-CPCM, MBIS, meta-GGA TD-DFT gradient, ML-optimized integration grids, 
  MM, NACMEs, nearIR, NEB, NEB-TS, NL-DFT gradient (VV10), 2- and 3-layer-ONIOM, interface openCOSMO-RS, QMMM,   
  Crystal-QMMM, SF, symmetry and pop. for TD-DFT, r2SCAN hybrids, SOLVATOR                                   
                                                                         
[Other institutions]                                                     
  V. Asgeirsson          : NEB                                           
  Christoph Bannwarth    : sTDA-DFT, sTD-DFT, PBEh-3c, B97-3c, D3        
  Sebastian Ehlert       : rSCAN, r2SCAN, r2SCAN-3c, D4, dhf basis sets  
  Marvin Friede          : D4 for Fr, Ra, Ac-Lr                          
  Lars Goerigk           : TD-DFT with DH, B97 family of functionals     
  Stefan Grimme          : VdW corrections, initial TS optimization, DFT functionals, gCP, sTDA/sTD-DF 
  Waldemar Hujo          : DFT-NL                                        
  H. Jonsson             : NEB                                           
  Holger Kruse           : gCP                                           
  Marcel Mueller         : wB97X-3c, vDZP basis set                      
  Hagen Neugebauer       : wr2SCAN                                       
  Tobias Risthaus        : range-separated hybrid DFT                    
  Lukas Wittmann         : regularized MP2, r2SCAN double-hybrids, wr2SCAN        
                                                                         
We gratefully acknowledge several colleagues who have allowed us to      
interface, adapt or use parts of their codes:                            
  Ed Valeev, F. Pavosevic, A. Kumar             : LibInt (2-el integral package), F12 methods 
  Garnet Chan, S. Sharma, J. Yang, R. Olivares  : DMRG                   
  Ulf Ekstrom                                   : XCFun DFT Library      
  Mihaly Kallay                                 : mrcc  (arbitrary order and MRCC methods)
  Frank Weinhold                                : gennbo (NPA and NBO analysis)           
  Simon Mueller                                 : openCOSMO-RS                            
  Christopher J. Cramer and Donald G. Truhlar   : smd solvation model                     
  S Lehtola, MJT Oliveira, MAL Marques          : LibXC Library                           
  Liviu Ungur et al                             : ANISO software                          


 Your calculation uses the libint2 library for the computation of 2-el integrals
 For citations please refer to: http://libint.valeyev.net

 Your ORCA version has been built with support for libXC version: 6.2.2
 For citations please refer to: https://libxc.gitlab.io

 This ORCA versions uses:
   CBLAS   interface :  Fast vector & matrix operations
   LAPACKE interface :  Fast linear algebra routines
   SCALAPACK package :  Parallel linear algebra routines
   Shared memory     :  Shared parallel matrices
   BLAS/LAPACK       :  OpenBLAS 0.3.27  USE64BITINT DYNAMIC_ARCH NO_AFFINITY SkylakeX SINGLE_THREADED
        Core in use  :  SkylakeX
   Copyright (c) 2011-2014, The OpenBLAS Project


NOTE: MaxCore=5000 MB was set to SCF,MP2,MDCI,CIPSI,MRCI and CIS
      => If you want to overwrite this, your respective input block should be placed after the MaxCore statement
Warning: RI is on but no J-basis has been assigned. Assigning Def2/J (nothing to worry about!)
================================================================================

----- Orbital basis set information -----
Your calculation utilizes the basis: def2-TZVP
   F. Weigend and R. Ahlrichs, Phys. Chem. Chem. Phys. 7, 3297 (2005).

----- AuxJ basis set information -----
Your calculation utilizes the auxiliary basis: def2/J
   F. Weigend, Phys. Chem. Chem. Phys. 8, 1057 (2006).

================================================================================
                                        WARNINGS
                       Please study these warnings very carefully!
================================================================================


WARNING: Geometry Optimization
  ===> : Switching off AutoStart
         For restart on a previous wavefunction, please use MOREAD

================================================================================
                                       INPUT FILE
================================================================================
NAME = honokiol2-opt_EC2_closer.inp
|  1> ! OPT B3LYP def2-TZVP TightSCF
|  2> 
|  3> %maxcore 5000
|  4> 
|  5> %pal
|  6> nprocs 25
|  7> end
|  8> 
|  9> * xyz 0 1
| 10> O           1.36437773330011      1.54399989494759      2.12021156593951
| 11>   O          -3.76506394948079     -2.11840516532875      1.60743006961093
| 12>   C           1.37010209724471     -0.10898836662179      0.31923905711944
| 13>   C           0.02444695966469     -0.65104792726533      0.65376812000306
| 14>   C          -2.32385553724485     -0.96083748801272      0.02862776977848
| 15>   C          -1.04215046331940     -0.48305480976814     -0.23261680558568
| 16>   C           3.32193677465510     -0.13718572558360     -1.16136230143315
| 17>   C           2.06904925632317     -0.61264206827608     -0.78049356477087
| 18>   C           1.95815501404152      0.93160815621227      1.05988993517860
| 19>   C          -0.21571122853606     -1.35380947462950      1.83685430134132
| 20>   C          -2.52915887611677     -1.65713162174071      1.22884738438028
| 21>   C          -3.46163344000604     -0.67865963353582     -0.93315979669021
| 22>   C           4.04841547917128     -0.72833287078193     -2.35518049578504
| 23>   C           3.87987096585184      0.89201214677005     -0.40458941391278
| 24>   C          -1.47686870158411     -1.86164571625626      2.11542452199726
| 25>   C           3.20939726714135      1.42083823275927      0.68780217642073
| 26>   C          -4.17721597002625     -1.91231031318686     -1.41812016112716
| 27>   C           3.33197436779747     -0.51129793224740     -3.65959184151876
| 28>   C          -5.48998749724041     -2.11530678988579     -1.33690377634985
| 29>   C           2.94488555745767     -1.47258442852624     -4.48970106321168
| 30>   H          -0.87416350833961      0.06918910426217     -1.14992585789736
| 31>   H           1.61005045637759     -1.41148224885220     -1.35233840370657
| 32>   H           0.59106490573070     -1.51997685442494      2.54022689240267
| 33>   H          -4.17906689262131      0.01250599142254     -0.47896159964550
| 34>   H          -3.04280360344085     -0.15370988928420     -1.79630590018049
| 35>   H           4.20765517959033     -1.80107005203335     -2.20798963280597
| 36>   H           5.04177578741289     -0.27100961141310     -2.41401963005143
| 37>   H           4.85531633524089      1.28545864969185     -0.66838539070925
| 38>   H          -1.66036389969794     -2.42066573077213      3.02424064442723
| 39>   H           3.64101605085886      2.22315342641616      1.27274940481250
| 40>   H          -3.55007813511459     -2.68156696453151     -1.86270196060707
| 41>   H           3.12230366890209      0.52532794875439     -3.91275579690846
| 42>   H           0.54968248785628      1.10837791167922      2.41607294324500
| 43>   H          -4.32859982276617     -2.22833125821122      0.82598673536891
| 44>   H          -5.94831254483864     -3.02091316640195     -1.71438173364578
| 45>   H          -6.15395889158211     -1.37031879925462     -0.91023096957762
| 46>   H           2.43342307443223     -1.25025512178816     -5.41807776666177
| 47>   H           3.12904118588329     -2.51933058356288     -4.27174321536037
| 48>   H          -4.83563725146937      1.81880870575588      3.93479213633047
| 49>   H          -4.54717989048373      0.02053285405023      5.52206065467617
| 50>   C          -4.27720662455397      0.96702808032739      3.54714023107409
| 51>   O          -2.58149235457028      0.11848182045224      4.91301727459553
| 52>   C          -2.03336291452277      0.94028833531506      3.99945422735977
| 53>   C          -3.97276180249295     -0.09999303863565      4.60580763682036
| 54>   O          -2.96788554245680      1.42578975353568      3.16182223502670
| 55>   O          -0.87026027398089      1.21268018414718      3.93878364672428
| 56>   H          -4.77278732288802      0.57056709263789      2.66572893717137
| 57>   H          -4.08616906984039     -1.11269562510230      4.22087529680127
| 58>   O          -4.56210765829393      2.50985260162685      0.54592388776761
| 59>   C          -3.57440070932594      3.14632431762367      0.75700889782969
| 60>   O          -2.39207605984214      2.95545323609566      0.13874859785778
| 61>   O          -3.49711247133562      4.16169940123665      1.64398793233310
| 62>   C          -1.38704514459988      3.82748049935426      0.68385664138693
| 63>   C          -2.17161520029037      4.71402528067837      1.66507503004865
| 64>   H          -0.62127452804608      3.22648302087055      1.17196356903103
| 65>   H          -0.94201207431638      4.38777531749893     -0.13715121999880
| 66>   H          -2.22967723583393      5.75586901185766      1.35002782705729
| 67>   H          -1.78959546613465      4.65825235023546      2.68283109362357
| 68> *
| 69> 
| 70>                          ****END OF INPUT****
================================================================================

                       *****************************
                       * Geometry Optimization Run *
                       *****************************

Geometry optimization settings:
Update method            Update   .... BFGS
Choice of coordinates    CoordSys .... (2022) Redundant Internals
Initial Hessian          InHess   .... Almloef's Model
Max. no of cycles        MaxIter  .... 174

Convergence Tolerances:
Energy Change            TolE     ....  5.0000e-06 Eh
Max. Gradient            TolMAXG  ....  3.0000e-04 Eh/bohr
RMS Gradient             TolRMSG  ....  1.0000e-04 Eh/bohr
Max. Displacement        TolMAXD  ....  4.0000e-03 bohr
RMS Displacement         TolRMSD  ....  2.0000e-03 bohr
Strict Convergence                .... False

------------------------------------------------------------------------------
                        ORCA OPTIMIZATION COORDINATE SETUP
------------------------------------------------------------------------------

The optimization will be done in redundant internal coordinates (2022)
Making redundant internal coordinates   ...  (2022 redundants) done
Evaluating the initial hessian          ...  (Almloef) done
Evaluating the coordinates              ...  done
Calculating the B-matrix                .... done
Calculating the G-matrix                .... done
Diagonalizing the G-matrix              .... done
Small eigenvalue found = 2.077e-03
Small eigenvalue found = 3.223e-03
Small eigenvalue found = 5.417e-03
Small eigenvalue found = 9.910e-03
Small eigenvalue found = 1.493e-02
Small eigenvalue found = 1.511e-02
Small eigenvalue found = 2.508e-02
Small eigenvalue found = 2.995e-02
The first mode is                       ....  229
The number of degrees of freedom        ....  168

    -----------------------------------------------------------------
                    Redundant Internal Coordinates


    -----------------------------------------------------------------
         Definition                    Initial Value    Approx d2E/dq
    -----------------------------------------------------------------
      1. B(C   3,C   2)                  1.4888         0.434619   
      2. B(C   5,C   3)                  1.3970         0.608998   
      3. B(C   5,C   4)                  1.3926         0.618891   
      4. B(C   7,C   2)                  1.3970         0.608937   
      5. B(C   7,C   6)                  1.3931         0.617624   
      6. B(C   8,C   2)                  1.4061         0.588842   
      7. B(C   8,O   0)                  1.3608         0.622878   
      8. B(C   9,C   3)                  1.3969         0.609228   
      9. B(C  10,C   4)                  1.4027         0.596367   
     10. B(C  10,O   1)                  1.3724         0.596912   
     11. B(C  11,C   4)                  1.5163         0.392842   
     12. B(C  12,C   6)                  1.5174         0.391308   
     13. B(C  13,C   6)                  1.3940         0.615676   
     14. B(C  14,C   9)                  1.3878         0.629843   
     15. B(C  14,C  10)                  1.3911         0.622276   
     16. B(C  15,C   8)                  1.3941         0.615547   
     17. B(C  15,C  13)                  1.3865         0.632773   
     18. B(C  16,C  11)                  1.5064         0.407459   
     19. B(C  17,C  12)                  1.5040         0.411084   
     20. B(C  18,C  16)                  1.3309         0.776429   
     21. B(C  19,C  17)                  1.3278         0.785257   
     22. B(H  20,C   5)                  1.0838         0.368379   
     23. B(H  21,C   7)                  1.0844         0.367642   
     24. B(H  22,C   9)                  1.0832         0.369265   
     25. B(H  23,C  11)                  1.0949         0.353729   
     26. B(H  24,C  11)                  1.0936         0.355339   
     27. B(H  25,C  12)                  1.0944         0.354281   
     28. B(H  26,C  12)                  1.0952         0.353341   
     29. B(H  27,C  13)                  1.0844         0.367610   
     30. B(H  28,C  14)                  1.0826         0.369962   
     31. B(H  29,C  15)                  1.0827         0.369933   
     32. B(H  30,C  16)                  1.0875         0.363389   
     33. B(H  31,C  17)                  1.0875         0.363428   
     34. B(H  32,O   0)                  0.9701         0.501079   
     35. B(H  33,O   1)                  0.9697         0.501762   
     36. B(H  34,C  18)                  1.0829         0.369615   
     37. B(H  35,C  18)                  1.0853         0.366347   
     38. B(H  36,C  19)                  1.0830         0.369469   
     39. B(H  37,C  19)                  1.0849         0.366855   
     40. B(C  40,H  38)                  1.0898         0.360374   
     41. B(C  42,O  41)                  1.3455         0.658945   
     42. B(C  43,O  41)                  1.4414         0.463246   
     43. B(C  43,C  40)                  1.5336         0.368636   
     44. B(C  43,H  39)                  1.0881         0.362597   
     45. B(O  44,C  42)                  1.3456         0.658709   
     46. B(O  44,C  40)                  1.4399         0.465903   
     47. B(O  45,H  32)                  2.0846         0.008349   
     48. B(O  45,C  42)                  1.1961         1.140801   
     49. B(H  46,C  40)                  1.0861         0.365263   
     50. B(H  47,C  43)                  1.0893         0.361011   
     51. B(O  48,H  23)                  2.7265         0.000790   
     52. B(O  48,H  38)                  3.4694         0.000052   
     53. B(O  48,C  40)                  3.3866         0.000365   
     54. B(O  48,O  44)                  3.2496         0.000541   
     55. B(O  48,H  46)                  2.8808         0.000448   
     56. B(C  49,O  48)                  1.1938         1.150430   
     57. B(C  49,H  23)                  3.4226         0.000068   
     58. B(C  49,H  46)                  3.4226         0.000068   
     59. B(C  49,O  44)                  3.0185         0.001412   
     60. B(O  50,C  49)                  1.3478         0.653432   
     61. B(O  50,H  20)                  3.5065         0.000045   
     62. B(O  50,H  23)                  3.4980         0.000046   
     63. B(O  50,O  44)                  3.4366         0.000272   
     64. B(O  51,C  49)                  1.3504         0.647126   
     65. B(O  51,O  44)                  3.1732         0.000716   
     66. B(C  52,O  50)                  1.4379         0.469241   
     67. B(C  53,C  52)                  1.5376         0.363251   
     68. B(C  53,O  51)                  1.4361         0.472376   
     69. B(H  54,O   0)                  2.7700         0.000673   
     70. B(H  54,H  32)                  2.7213         0.000172   
     71. B(H  54,C  52)                  1.0890         0.361468   
     72. B(H  54,O  50)                  2.0680         0.008875   
     73. B(H  54,C   8)                  3.4543         0.000061   
     74. B(H  54,O  45)                  3.4311         0.000059   
     75. B(H  55,C  52)                  1.0891         0.361354   
     76. B(H  56,C  53)                  1.0900         0.360122   
     77. B(H  57,C  53)                  1.0885         0.362062   
     78. B(H  57,O  44)                  3.4737         0.000051   
     79. A(C   8,O   0,H  32)          113.7034         0.368065   
     80. A(C  10,O   1,H  33)          109.8246         0.365474   
     81. A(C   3,C   2,C   8)          121.9436         0.403712   
     82. A(C   3,C   2,C   7)          119.8569         0.406112   
     83. A(C   7,C   2,C   8)          118.1781         0.428675   
     84. A(C   2,C   3,C   5)          120.2479         0.406119   
     85. A(C   2,C   3,C   9)          121.9297         0.406146   
     86. A(C   5,C   3,C   9)          117.8158         0.431310   
     87. A(C   5,C   4,C  11)          120.5158         0.400080   
     88. A(C   5,C   4,C  10)          117.7454         0.430906   
     89. A(C  10,C   4,C  11)          121.6881         0.397481   
     90. A(C   4,C   5,H  20)          118.4408         0.354163   
     91. A(C   3,C   5,C   4)          122.8489         0.432531   
     92. A(C   3,C   5,H  20)          118.6829         0.353197   
     93. A(C  12,C   6,C  13)          121.5422         0.399439   
     94. A(C   7,C   6,C  12)          120.8442         0.399661   
     95. A(C   7,C   6,C  13)          117.6131         0.433221   
     96. A(C   2,C   7,H  21)          117.9667         0.353072   
     97. A(C   6,C   7,H  21)          119.2042         0.353920   
     98. A(C   2,C   7,C   6)          122.8283         0.432364   
     99. A(O   0,C   8,C  15)          116.2106         0.431027   
    100. A(C   2,C   8,C  15)          119.6356         0.429506   
    101. A(O   0,C   8,C   2)          124.1223         0.427611   
    102. A(C   3,C   9,C  14)          120.6864         0.433927   
    103. A(C  14,C   9,H  22)          119.3655         0.355362   
    104. A(C   3,C   9,H  22)          119.9413         0.353364   
    105. A(O   1,C  10,C   4)          122.3223         0.425328   
    106. A(O   1,C  10,C  14)          117.1280         0.428581   
    107. A(C   4,C  10,C  14)          120.5037         0.431328   
    108. A(C   4,C  11,C  16)          114.0950         0.371999   
    109. A(C  16,C  11,H  24)          108.7200         0.328267   
    110. A(C  16,C  11,H  23)          109.8323         0.328021   
    111. A(C   4,C  11,H  24)          107.6125         0.326297   
    112. A(C   4,C  11,H  23)          110.2450         0.326053   
    113. A(H  23,C  11,H  24)          105.9829         0.289421   
    114. A(H  25,C  12,H  26)          106.5325         0.289236   
    115. A(C  17,C  12,H  26)          108.9796         0.328441   
    116. A(C   6,C  12,H  26)          108.2917         0.325784   
    117. A(C  17,C  12,H  25)          109.1114         0.328585   
    118. A(C   6,C  12,C  17)          113.4584         0.372316   
    119. A(C   6,C  12,H  25)          110.2252         0.325927   
    120. A(C   6,C  13,C  15)          121.0480         0.435114   
    121. A(C  15,C  13,H  27)          119.2260         0.355371   
    122. A(C   6,C  13,H  27)          119.7255         0.353725   
    123. A(C  10,C  14,H  28)          118.8616         0.354748   
    124. A(C   9,C  14,H  28)          120.7613         0.355476   
    125. A(C   9,C  14,C  10)          120.3769         0.435586   
    126. A(C  13,C  15,H  29)          121.0325         0.355751   
    127. A(C   8,C  15,H  29)          118.2734         0.354090   
    128. A(C   8,C  15,C  13)          120.6941         0.435097   
    129. A(C  11,C  16,H  30)          115.9100         0.329483   
    130. A(C  18,C  16,H  30)          119.0705         0.367268   
    131. A(C  11,C  16,C  18)          125.0194         0.419183   
    132. A(C  12,C  17,C  19)          125.2144         0.420693   
    133. A(C  12,C  17,H  31)          115.5509         0.329972   
    134. A(C  19,C  17,H  31)          119.2334         0.367988   
    135. A(H  34,C  18,H  35)          116.8819         0.292826   
    136. A(C  16,C  18,H  34)          121.5857         0.368340   
    137. A(C  16,C  18,H  35)          121.5172         0.367779   
    138. A(C  17,C  19,H  37)          121.5616         0.368581   
    139. A(C  17,C  19,H  36)          121.6667         0.369031   
    140. A(H  36,C  19,H  37)          116.7714         0.292872   
    141. A(O   0,H  32,O  45)          140.5659         0.179634   
    142. A(O  44,C  40,O  48)           72.1933         0.148100   
    143. A(H  38,C  40,O  48)           85.1845         0.137629   
    144. A(H  38,C  40,C  43)          113.5764         0.323651   
    145. A(C  43,C  40,O  48)          160.9835         0.145515   
    146. A(H  46,C  40,O  48)           53.7527         0.137777   
    147. A(O  44,C  40,H  46)          108.3032         0.335137   
    148. A(C  43,C  40,H  46)          113.3788         0.324368   
    149. A(H  38,C  40,H  46)          109.8866         0.291526   
    150. A(C  43,C  40,O  44)          103.0552         0.374181   
    151. A(H  38,C  40,O  44)          108.1870         0.334388   
    152. A(C  42,O  41,C  43)          109.9417         0.411154   
    153. A(O  44,C  42,O  45)          124.1658         0.484018   
    154. A(O  41,C  42,O  45)          124.7268         0.484050   
    155. A(O  41,C  42,O  44)          111.1064         0.437873   
    156. A(O  41,C  43,H  47)          108.4639         0.334168   
    157. A(C  40,C  43,H  47)          112.4712         0.323745   
    158. A(H  39,C  43,H  47)          110.2168         0.291271   
    159. A(C  40,C  43,O  41)          103.4899         0.373812   
    160. A(H  39,C  43,O  41)          108.2567         0.334412   
    161. A(H  39,C  43,C  40)          113.5415         0.323978   
    162. A(O  48,O  44,O  50)           39.2477         0.100777   
    163. A(O  50,O  44,O  51)           39.0501         0.101549   
    164. A(C  49,O  44,O  50)           22.9466         0.103756   
    165. A(C  42,O  44,O  50)          126.2859         0.148300   
    166. A(C  40,O  44,O  50)          121.9768         0.143830   
    167. A(O  48,O  44,O  51)           41.0174         0.103661   
    168. A(O  48,O  44,C  49)           21.5540         0.106239   
    169. A(C  42,O  44,O  48)          164.1936         0.158280   
    170. A(C  40,O  44,O  48)           82.8538         0.153057   
    171. A(C  49,O  44,O  51)           25.0350         0.107370   
    172. A(C  42,O  44,O  51)          136.4414         0.162822   
    173. A(C  40,O  44,O  51)          104.5397         0.157257   
    174. A(C  42,O  44,C  49)          147.2610         0.175805   
    175. A(C  40,O  44,C  49)          102.2450         0.169261   
    176. A(C  40,O  44,C  42)          110.4865         0.411545   
    177. A(H  32,O  45,C  42)          133.4720         0.215679   
    178. A(C  40,O  48,O  44)           24.9528         0.101694   
    179. A(C  40,O  48,C  49)           90.9503         0.161518   
    180. A(O  44,O  48,C  49)           68.2614         0.167599   
    181. A(O  44,C  49,O  51)           83.9036         0.175458   
    182. A(O  44,C  49,O  50)           96.2273         0.175648   
    183. A(O  44,C  49,O  48)           90.1846         0.187482   
    184. A(O  50,C  49,O  51)          110.9506         0.435814   
    185. A(O  48,C  49,O  51)          124.3565         0.483184   
    186. A(O  48,C  49,O  50)          124.6917         0.484050   
    187. A(O  44,O  50,C  52)           93.0707         0.143919   
    188. A(O  44,O  50,C  49)           60.8261         0.148193   
    189. A(C  49,O  50,C  52)          110.6923         0.411479   
    190. A(O  44,O  51,C  53)           99.8250         0.157471   
    191. A(O  44,O  51,C  49)           71.0614         0.162527   
    192. A(C  49,O  51,C  53)          110.5875         0.411258   
    193. A(H  54,C  52,H  55)          109.5413         0.291172   
    194. A(C  53,C  52,H  55)          113.1383         0.323015   
    195. A(O  50,C  52,H  55)          108.1697         0.334936   
    196. A(C  53,C  52,H  54)          113.0157         0.323032   
    197. A(O  50,C  52,H  54)          109.0701         0.334953   
    198. A(O  50,C  52,C  53)          103.5878         0.373692   
    199. A(H  56,C  53,H  57)          109.7500         0.291091   
    200. A(C  52,C  53,H  57)          112.8325         0.323119   
    201. A(O  51,C  53,H  57)          108.5385         0.335416   
    202. A(C  52,C  53,H  56)          113.1934         0.322834   
    203. A(O  51,C  53,H  56)          108.3125         0.335116   
    204. A(O  51,C  53,C  52)          103.8764         0.374122   
    205. D(C   5,C   3,C   2,C   8)    113.9867         0.012898   
    206. D(C   9,C   3,C   2,C   7)    114.7433         0.012898   
    207. D(C   9,C   3,C   2,C   8)    -66.9717         0.012898   
    208. D(C   5,C   3,C   2,C   7)    -64.2983         0.012898   
    209. D(H  20,C   5,C   4,C  10)   -179.1141         0.026499   
    210. D(H  20,C   5,C   3,C   2)     -1.5683         0.025610   
    211. D(C   3,C   5,C   4,C  10)     -1.0469         0.026499   
    212. D(C   4,C   5,C   3,C   2)   -179.6311         0.025610   
    213. D(C   3,C   5,C   4,C  11)    176.4041         0.026499   
    214. D(C   4,C   5,C   3,C   9)      1.2886         0.025610   
    215. D(H  20,C   5,C   3,C   9)    179.3514         0.025610   
    216. D(H  20,C   5,C   4,C  11)     -1.6632         0.026499   
    217. D(H  21,C   7,C   2,C   3)     -1.3339         0.025604   
    218. D(C   6,C   7,C   2,C   8)      0.6496         0.025604   
    219. D(C   6,C   7,C   2,C   3)    178.9986         0.025604   
    220. D(H  21,C   7,C   6,C  12)     -0.3709         0.026384   
    221. D(H  21,C   7,C   6,C  13)    179.8740         0.026384   
    222. D(C   2,C   7,C   6,C  13)     -0.4625         0.026384   
    223. D(H  21,C   7,C   2,C   8)   -179.6829         0.025604   
    224. D(C   2,C   7,C   6,C  12)    179.2927         0.026384   
    225. D(C  15,C   8,C   2,C   3)   -178.7130         0.025910   
    226. D(C  15,C   8,C   2,C   7)     -0.4004         0.025910   
    227. D(O   0,C   8,C   2,C   3)     -0.8343         0.025910   
    228. D(O   0,C   8,C   2,C   7)    177.4783         0.025910   
    229. D(C  15,C   8,O   0,H  32)   -172.9291         0.034189   
    230. D(C   2,C   8,O   0,H  32)      9.1260         0.034189   
    231. D(H  22,C   9,C   3,C   5)    178.8800         0.025630   
    232. D(H  22,C   9,C   3,C   2)     -0.1839         0.025630   
    233. D(C  14,C   9,C   3,C   2)   -179.2323         0.025630   
    234. D(C  14,C   9,C   3,C   5)     -0.1684         0.025630   
    235. D(C   4,C  10,O   1,H  33)     23.4075         0.026005   
    236. D(C  14,C  10,O   1,H  33)   -159.0490         0.026005   
    237. D(C  14,C  10,C   4,C  11)   -177.7345         0.024502   
    238. D(C  14,C  10,C   4,C   5)     -0.3152         0.024502   
    239. D(O   1,C  10,C   4,C  11)     -0.2720         0.024502   
    240. D(O   1,C  10,C   4,C   5)    177.1472         0.024502   
    241. D(H  24,C  11,C   4,C   5)      4.2287         0.011473   
    242. D(H  23,C  11,C   4,C  10)     66.4268         0.011473   
    243. D(C  16,C  11,C   4,C  10)    -57.7028         0.011473   
    244. D(C  16,C  11,C   4,C   5)    124.9485         0.011473   
    245. D(H  23,C  11,C   4,C   5)   -110.9219         0.011473   
    246. D(H  26,C  12,C   6,C   7)   -174.9506         0.011388   
    247. D(H  25,C  12,C   6,C  13)    120.9742         0.011388   
    248. D(H  25,C  12,C   6,C   7)    -58.7713         0.011388   
    249. D(C  17,C  12,C   6,C  13)   -116.3261         0.011388   
    250. D(C  17,C  12,C   6,C   7)     63.9285         0.011388   
    251. D(H  27,C  13,C   6,C  12)      0.0165         0.026208   
    252. D(H  27,C  13,C   6,C   7)    179.7699         0.026208   
    253. D(C  15,C  13,C   6,C  12)   -179.7260         0.026208   
    254. D(C  15,C  13,C   6,C   7)      0.0274         0.026208   
    255. D(H  28,C  14,C  10,C   4)   -178.7240         0.026807   
    256. D(C   9,C  14,C  10,C   4)      1.3962         0.026807   
    257. D(H  28,C  14,C   9,H  22)     -0.0784         0.027505   
    258. D(H  28,C  14,C   9,C   3)    178.9755         0.027505   
    259. D(C   9,C  14,C  10,O   1)   -176.1945         0.026807   
    260. D(C  10,C  14,C   9,H  22)    179.7991         0.027505   
    261. D(C  10,C  14,C   9,C   3)     -1.1470         0.027505   
    262. D(H  28,C  14,C  10,O   1)      3.6853         0.026807   
    263. D(H  29,C  15,C   8,C   2)    179.9213         0.028464   
    264. D(H  29,C  15,C   8,O   0)      1.8786         0.028464   
    265. D(C  13,C  15,C   8,C   2)     -0.0078         0.028464   
    266. D(C   8,C  15,C  13,C   6)      0.2005         0.027778   
    267. D(C  13,C  15,C   8,O   0)   -178.0505         0.028464   
    268. D(H  29,C  15,C  13,H  27)      0.5296         0.027778   
    269. D(H  29,C  15,C  13,C   6)   -179.7267         0.027778   
    270. D(C   8,C  15,C  13,H  27)   -179.5432         0.027778   
    271. D(H  30,C  16,C  11,H  23)   -178.2824         0.012302   
    272. D(H  30,C  16,C  11,C   4)    -53.9317         0.012302   
    273. D(C  18,C  16,C  11,H  24)   -113.9595         0.012302   
    274. D(C  18,C  16,C  11,H  23)      1.5892         0.012302   
    275. D(C  18,C  16,C  11,C   4)    125.9398         0.012302   
    276. D(H  31,C  17,C  12,H  25)   -179.8072         0.012514   
    277. D(H  31,C  17,C  12,C   6)     56.8802         0.012514   
    278. D(C  19,C  17,C  12,C   6)   -122.6914         0.012514   
    279. D(C  19,C  17,C  12,H  25)      0.6212         0.012514   
    280. D(C  19,C  17,C  12,H  26)    116.5749         0.012514   
    281. D(H  35,C  18,C  16,H  30)   -179.3605         0.043290   
    282. D(H  35,C  18,C  16,C  11)      0.7717         0.043290   
    283. D(H  34,C  18,C  16,H  30)     -0.8266         0.043290   
    284. D(H  34,C  18,C  16,C  11)    179.3056         0.043290   
    285. D(H  37,C  19,C  17,H  31)   -179.6207         0.044383   
    286. D(H  37,C  19,C  17,C  12)     -0.0636         0.044383   
    287. D(H  36,C  19,C  17,H  31)      0.5901         0.044383   
    288. D(H  36,C  19,C  17,C  12)   -179.8529         0.044383   
    289. D(O  45,H  32,O   0,C   8)    173.9515         0.348562   
    290. D(O  44,C  42,O  41,C  43)      6.6209         0.032163   
    291. D(O  45,C  42,O  41,C  43)   -173.7279         0.032163   
    292. D(H  47,C  43,O  41,C  42)    107.1070         0.016909   
    293. D(C  40,C  43,O  41,C  42)    -12.5294         0.016909   
    294. D(H  39,C  43,O  41,C  42)   -133.3033         0.016909   
    295. D(O  41,C  43,C  40,H  46)    130.2000         0.011519   
    296. D(O  41,C  43,C  40,O  44)     13.3629         0.011519   
    297. D(O  41,C  43,C  40,H  38)   -103.4305         0.011519   
    298. D(H  39,C  43,C  40,O  48)   -156.4071         0.011519   
    299. D(H  39,C  43,C  40,H  46)   -112.6756         0.011519   
    300. D(H  39,C  43,C  40,O  44)    130.4874         0.011519   
    301. D(H  39,C  43,C  40,H  38)     13.6939         0.011519   
    302. D(O  48,O  44,C  42,O  45)     36.9550         0.046983   
    303. D(O  48,O  44,C  42,O  41)   -143.3915         0.046983   
    304. D(O  51,O  44,C  42,O  45)    -35.2891         0.046983   
    305. D(O  51,O  44,C  42,O  41)    144.3644         0.046983   
    306. D(C  49,O  44,C  42,O  41)   -178.3476         0.046983   
    307. D(C  40,O  44,C  42,O  45)   -176.7165         0.046983   
    308. D(C  40,O  44,C  42,O  41)      2.9370         0.046983   
    309. D(O  51,O  44,C  40,C  43)   -164.0093         0.024667   
    310. D(O  51,O  44,C  40,H  38)    -43.4550         0.024667   
    311. D(C  49,O  44,C  40,O  48)      9.4655         0.024667   
    312. D(C  49,O  44,C  40,H  46)     49.9696         0.024667   
    313. D(C  49,O  44,C  40,C  43)    170.3504         0.024667   
    314. D(C  49,O  44,C  42,O  45)      1.9988         0.046983   
    315. D(C  49,O  44,C  40,H  38)    -69.0952         0.024667   
    316. D(C  42,O  44,C  40,O  48)   -171.2454         0.024667   
    317. D(C  42,O  44,C  40,H  46)   -130.7413         0.024667   
    318. D(C  42,O  44,C  40,C  43)    -10.3605         0.024667   
    319. D(C  42,O  44,C  40,H  38)    110.1939         0.024667   
    320. D(H  32,O  45,C  42,O  44)    -54.3509         0.123305   
    321. D(H  32,O  45,C  42,O  41)    126.0424         0.123305   
    322. D(C  42,O  45,H  32,O   0)    150.9599         0.001540   
    323. D(C  49,O  48,O  44,C  40)    154.0583         0.001500   
    324. D(O  44,O  48,C  40,H  46)   -130.1270         0.001500   
    325. D(O  44,O  48,C  40,C  43)    -78.2403         0.001500   
    326. D(O  44,O  48,C  40,H  38)    110.8575         0.001500   
    327. D(C  49,O  48,C  40,H  46)   -154.1060         0.001500   
    328. D(C  49,O  48,C  40,O  44)    -23.9790         0.001500   
    329. D(C  49,O  48,C  40,C  43)   -102.2192         0.001500   
    330. D(C  49,O  48,O  44,C  42)    -57.5044         0.001500   
    331. D(C  49,O  48,C  40,H  38)     86.8785         0.001500   
    332. D(C  40,O  48,O  44,O  50)    175.6049         0.001500   
    333. D(C  40,O  48,O  44,O  51)   -121.9828         0.001500   
    334. D(C  40,O  48,O  44,C  49)   -154.0583         0.001500   
    335. D(C  40,O  48,O  44,C  42)    148.4373         0.001500   
    336. D(C  49,O  48,O  44,O  50)    -30.3367         0.001500   
    337. D(C  49,O  48,O  44,O  51)     32.0756         0.001500   
    338. D(O  44,C  49,O  48,C  40)     10.6364         0.185972   
    339. D(O  51,C  49,O  48,C  40)    -72.0995         0.185972   
    340. D(O  51,C  49,O  48,O  44)    -82.7359         0.185972   
    341. D(O  50,C  49,O  48,C  40)    108.3462         0.185972   
    342. D(O  50,C  49,O  48,O  44)     97.7098         0.185972   
    343. D(O  51,C  49,O  44,O  48)    124.5558         0.001500   
    344. D(O  51,C  49,O  44,C  42)    -80.5825         0.001500   
    345. D(O  51,C  49,O  44,C  40)     98.1860         0.001500   
    346. D(O  50,C  49,O  44,O  48)   -124.9522         0.001500   
    347. D(O  50,C  49,O  44,O  51)    110.4920         0.001500   
    348. D(O  50,C  49,O  44,C  42)     29.9095         0.001500   
    349. D(O  50,C  49,O  44,C  40)   -151.3220         0.001500   
    350. D(O  48,C  49,O  44,O  50)    124.9522         0.001500   
    351. D(O  48,C  49,O  44,O  51)   -124.5558         0.001500   
    352. D(O  48,C  49,O  44,C  42)    154.8617         0.001500   
    353. D(O  48,C  49,O  44,C  40)    -26.3698         0.001500   
    354. D(O  44,O  50,C  49,O  51)     85.8357         0.051049   
    355. D(O  44,O  50,C  49,O  48)    -94.5583         0.051049   
    356. D(C  52,O  50,C  49,O  44)    -81.6459         0.051049   
    357. D(C  52,O  50,C  49,O  51)      4.1899         0.051049   
    358. D(C  52,O  50,C  49,O  48)   -176.2042         0.051049   
    359. D(C  52,O  50,O  44,O  48)    140.4645         0.001500   
    360. D(C  52,O  50,O  44,O  51)     73.0531         0.001500   
    361. D(C  52,O  50,O  44,C  49)    112.0440         0.001500   
    362. D(C  52,O  50,O  44,C  42)    -48.4112         0.001500   
    363. D(C  52,O  50,O  44,C  40)    145.6074         0.001500   
    364. D(C  49,O  50,O  44,O  48)     28.4205         0.001500   
    365. D(C  49,O  50,O  44,O  51)    -38.9910         0.001500   
    366. D(C  49,O  50,O  44,C  42)   -160.4553         0.001500   
    367. D(C  49,O  50,O  44,C  40)     33.5634         0.001500   
    368. D(O  44,O  51,C  49,O  50)    -94.3541         0.042639   
    369. D(C  53,O  51,C  49,O  44)     93.6593         0.042639   
    370. D(C  53,O  51,C  49,O  50)     -0.6947         0.042639   
    371. D(C  53,O  51,C  49,O  48)    179.6977         0.042639   
    372. D(C  53,O  51,O  44,O  48)   -135.9874         0.001500   
    373. D(C  53,O  51,O  44,C  49)   -108.5344         0.001500   
    374. D(C  53,O  51,O  44,C  42)     20.7297         0.001500   
    375. D(C  53,O  51,O  44,C  40)    163.6162         0.001500   
    376. D(C  49,O  51,O  44,O  50)     35.4285         0.001500   
    377. D(C  49,O  51,O  44,O  48)    -27.4531         0.001500   
    378. D(O  44,O  51,C  49,O  48)     86.0384         0.042639   
    379. D(C  49,O  51,O  44,C  42)    129.2641         0.001500   
    380. D(C  49,O  51,O  44,C  40)    -87.8495         0.001500   
    381. D(H  55,C  52,O  50,O  44)    174.1997         0.022714   
    382. D(H  55,C  52,O  50,C  49)   -125.9037         0.022714   
    383. D(H  54,C  52,O  50,O  44)     55.1257         0.022714   
    384. D(H  54,C  52,O  50,C  49)    115.0223         0.022714   
    385. D(C  53,C  52,O  50,O  44)    -65.4817         0.022714   
    386. D(C  53,C  52,O  50,C  49)     -5.5851         0.022714   
    387. D(H  56,C  53,C  52,H  55)      4.4920         0.010573   
    388. D(H  56,C  53,C  52,H  54)    129.7130         0.010573   
    389. D(H  56,C  53,C  52,O  50)   -112.3904         0.010573   
    390. D(O  51,C  53,C  52,H  55)    121.7467         0.010573   
    391. D(O  51,C  53,C  52,H  54)   -113.0322         0.010573   
    392. D(O  51,C  53,C  52,O  50)      4.8644         0.010573   
    393. D(H  57,C  53,O  51,C  49)   -123.0361         0.019070   
    394. D(H  56,C  53,O  51,O  44)   -168.8078         0.019070   
    395. D(H  56,C  53,O  51,C  49)    117.8591         0.019070   
    396. D(C  52,C  53,O  51,O  44)     70.5900         0.019070   
    397. D(C  52,C  53,O  51,C  49)     -2.7432         0.019070   
    -----------------------------------------------------------------

Number of atoms                         .... 58
Number of degrees of freedom            .... 397


         *************************************************************
         *                GEOMETRY OPTIMIZATION CYCLE   1            *
         *************************************************************
---------------------------------
CARTESIAN COORDINATES (ANGSTROEM)
---------------------------------
  O      1.364378    1.544000    2.120212
  O     -3.765064   -2.118405    1.607430
  C      1.370102   -0.108988    0.319239
  C      0.024447   -0.651048    0.653768
  C     -2.323856   -0.960837    0.028628
  C     -1.042150   -0.483055   -0.232617
  C      3.321937   -0.137186   -1.161362
  C      2.069049   -0.612642   -0.780494
  C      1.958155    0.931608    1.059890
  C     -0.215711   -1.353809    1.836854
  C     -2.529159   -1.657132    1.228847
  C     -3.461633   -0.678660   -0.933160
  C      4.048415   -0.728333   -2.355180
  C      3.879871    0.892012   -0.404589
  C     -1.476869   -1.861646    2.115425
  C      3.209397    1.420838    0.687802
  C     -4.177216   -1.912310   -1.418120
  C      3.331974   -0.511298   -3.659592
  C     -5.489987   -2.115307   -1.336904
  C      2.944886   -1.472584   -4.489701
  H     -0.874164    0.069189   -1.149926
  H      1.610050   -1.411482   -1.352338
  H      0.591065   -1.519977    2.540227
  H     -4.179067    0.012506   -0.478962
  H     -3.042804   -0.153710   -1.796306
  H      4.207655   -1.801070   -2.207990
  H      5.041776   -0.271010   -2.414020
  H      4.855316    1.285459   -0.668385
  H     -1.660364   -2.420666    3.024241
  H      3.641016    2.223153    1.272749
  H     -3.550078   -2.681567   -1.862702
  H      3.122304    0.525328   -3.912756
  H      0.549682    1.108378    2.416073
  H     -4.328600   -2.228331    0.825987
  H     -5.948313   -3.020913   -1.714382
  H     -6.153959   -1.370319   -0.910231
  H      2.433423   -1.250255   -5.418078
  H      3.129041   -2.519331   -4.271743
  H     -4.835637    1.818809    3.934792
  H     -4.547180    0.020533    5.522061
  C     -4.277207    0.967028    3.547140
  O     -2.581492    0.118482    4.913017
  C     -2.033363    0.940288    3.999454
  C     -3.972762   -0.099993    4.605808
  O     -2.967886    1.425790    3.161822
  O     -0.870260    1.212680    3.938784
  H     -4.772787    0.570567    2.665729
  H     -4.086169   -1.112696    4.220875
  O     -4.562108    2.509853    0.545924
  C     -3.574401    3.146324    0.757009
  O     -2.392076    2.955453    0.138749
  O     -3.497112    4.161699    1.643988
  C     -1.387045    3.827480    0.683857
  C     -2.171615    4.714025    1.665075
  H     -0.621275    3.226483    1.171964
  H     -0.942012    4.387775   -0.137151
  H     -2.229677    5.755869    1.350028
  H     -1.789595    4.658252    2.682831

----------------------------
CARTESIAN COORDINATES (A.U.)
----------------------------
  NO LB      ZA    FRAG     MASS         X           Y           Z
   0 O     8.0000    0    15.999    2.578300    2.917737    4.006619
   1 O     8.0000    0    15.999   -7.114940   -4.003206    3.037603
   2 C     6.0000    0    12.011    2.589118   -0.205958    0.603274
   3 C     6.0000    0    12.011    0.046198   -1.230302    1.235443
   4 C     6.0000    0    12.011   -4.391451   -1.815720    0.054099
   5 C     6.0000    0    12.011   -1.969379   -0.912841   -0.439582
   6 C     6.0000    0    12.011    6.277551   -0.259243   -2.194657
   7 C     6.0000    0    12.011    3.909936   -1.157726   -1.474919
   8 C     6.0000    0    12.011    3.700377    1.760484    2.002902
   9 C     6.0000    0    12.011   -0.407635   -2.558329    3.471152
  10 C     6.0000    0    12.011   -4.779418   -3.131525    2.322185
  11 C     6.0000    0    12.011   -6.541539   -1.282481   -1.763416
  12 C     6.0000    0    12.011    7.650397   -1.376350   -4.450646
  13 C     6.0000    0    12.011    7.331894    1.685659   -0.764563
  14 C     6.0000    0    12.011   -2.790877   -3.518001    3.997573
  15 C     6.0000    0    12.011    6.064882    2.684995    1.299758
  16 C     6.0000    0    12.011   -7.893794   -3.613743   -2.679859
  17 C     6.0000    0    12.011    6.296519   -0.966213   -6.915626
  18 C     6.0000    0    12.011  -10.374573   -3.997351   -2.526382
  19 C     6.0000    0    12.011    5.565027   -2.782781   -8.484305
  20 H     1.0000    0     1.008   -1.651930    0.130748   -2.173045
  21 H     1.0000    0     1.008    3.042554   -2.667315   -2.555549
  22 H     1.0000    0     1.008    1.116951   -2.872340    4.800333
  23 H     1.0000    0     1.008   -7.897292    0.023633   -0.905106
  24 H     1.0000    0     1.008   -5.750065   -0.290470   -3.394526
  25 H     1.0000    0     1.008    7.951316   -3.403529   -4.172496
  26 H     1.0000    0     1.008    9.527575   -0.512134   -4.561836
  27 H     1.0000    0     1.008    9.175218    2.429165   -1.263065
  28 H     1.0000    0     1.008   -3.137633   -4.574395    5.714987
  29 H     1.0000    0     1.008    6.880523    4.201151    2.405148
  30 H     1.0000    0     1.008   -6.708675   -5.067427   -3.519997
  31 H     1.0000    0     1.008    5.900299    0.992726   -7.394037
  32 H     1.0000    0     1.008    1.038749    2.094531    4.565716
  33 H     1.0000    0     1.008   -8.179868   -4.210936    1.560889
  34 H     1.0000    0     1.008  -11.240682   -5.708699   -3.239712
  35 H     1.0000    0     1.008  -11.629297   -2.589527   -1.720087
  36 H     1.0000    0     1.008    4.598503   -2.362640  -10.238683
  37 H     1.0000    0     1.008    5.913031   -4.760845   -8.072425
  38 H     1.0000    0     1.008   -9.138030    3.437050    7.435680
  39 H     1.0000    0     1.008   -8.592925    0.038801   10.435182
  40 C     6.0000    0    12.011   -8.082749    1.827418    6.703124
  41 O     8.0000    0    15.999   -4.878314    0.223898    9.284257
  42 C     6.0000    0    12.011   -3.842499    1.776887    7.557873
  43 C     6.0000    0    12.011   -7.507432   -0.188959    8.703715
  44 O     8.0000    0    15.999   -5.608491    2.694352    5.974978
  45 O     8.0000    0    15.999   -1.644554    2.291633    7.443222
  46 H     1.0000    0     1.008   -9.019261    1.078216    5.037498
  47 H     1.0000    0     1.008   -7.721740   -2.102690    7.976298
  48 O     8.0000    0    15.999   -8.621134    4.742934    1.031647
  49 C     6.0000    0    12.011   -6.754638    5.945691    1.430539
  50 O     8.0000    0    15.999   -4.520369    5.584997    0.262197
  51 O     8.0000    0    15.999   -6.608585    7.864472    3.106687
  52 C     6.0000    0    12.011   -2.621135    7.232890    1.292302
  53 C     6.0000    0    12.011   -4.103758    8.908217    3.146536
  54 H     1.0000    0     1.008   -1.174039    6.097169    2.214690
  55 H     1.0000    0     1.008   -1.780145    8.291694   -0.259178
  56 H     1.0000    0     1.008   -4.213479   10.877016    2.551183
  57 H     1.0000    0     1.008   -3.381845    8.802821    5.069816

--------------------------------
INTERNAL COORDINATES (ANGSTROEM)
--------------------------------
 O      0   0   0     0.000000000000     0.00000000     0.00000000
 O      1   0   0     6.323553404975     0.00000000     0.00000000
 C      1   2   0     2.444566411197    63.29034729     0.00000000
 C      3   1   2     1.488800191595    94.50454524   359.67181200
 C      2   1   3     2.430979497450    45.24958289   318.38687869
 C      5   2   1     1.392584974899   146.18643044    29.15572916
 C      3   1   2     2.450027363509   117.05628028   177.89881360
 C      7   3   1     1.393142800278    28.62900031   181.71671679
 C      1   2   3     1.360836897448    91.72610076   359.81802582
 C      4   3   1     1.396868877271   121.92966797   292.64260587
 C      2   1   3     1.372428315774    25.47629266   357.35504565
 C      5   2   1     1.516310726923    93.19334502   213.46369014
 C      7   3   1     1.517375410555   149.46969826   180.52121338
 C      7   3   1     1.394002878566    88.98492725     1.30684872
 C     10   4   3     1.387810213239   120.68641773   180.76767524
 C     14   7   3     1.386546572069   121.04799633   359.80576064
 C     12   5   2     1.506366128054   114.09501324   302.16725767
 C     13   7   3     1.503955115517   113.45839530    64.59558868
 C     17  12   5     1.330854144290   125.01943435   125.93984833
 C     18  13   7     1.327776635944   125.21440752   237.30863324
 H      6   5   2     1.083812186257   118.44076554   183.33125613
 H      8   7   3     1.084357898607   119.20421332   180.33646138
 H     10   4   3     1.083158497537   119.94130783   359.81613878
 H     12   5   2     1.094859206590   110.24500720    66.29678625
 H     12   5   2     1.093623272410   107.61251749   181.44748103
 H     13   7   3     1.094434782147   110.22517817   301.89588171
 H     13   7   3     1.095158120671   108.29168436   185.71655678
 H     14   7   3     1.084380992409   119.72551637   179.54824518
 H     15  10   4     1.082645190609   120.76132058   178.97554129
 H     16  14   7     1.082666940676   121.03245925   180.27331604
 H     17  12   5     1.087525004790   115.90996310   306.06831032
 H     18  13   7     1.087495750542   115.55087437    56.88020543
 H      1   2   3     0.970066394551    23.56660755   200.29030394
 H      2   1   3     0.969695885836   127.04264760   303.95292658
 H     19  17  12     1.082900903447   121.58571420   179.30557128
 H     19  17  12     1.085317834889   121.51716104     0.77169947
 H     20  18  13     1.083008539064   121.66668683   180.14713941
 H     20  18  13     1.084940750458   121.56157325   359.93639979
 H      2   1   3     4.697275215611    70.07701649   201.90969418
 H     39   2   1     2.415869416435    70.99832182   258.97276265
 C     39   2   1     1.089793098979    18.52940131   329.42269425
 O     40  39   2     2.060207593347    83.35627154    67.34485439
 C     42  40  39     1.345514500922   128.20245988   359.65433492
 C     40  39   2     1.088118662347    65.93567016    27.87843232
 O     43  42  40     1.345611951416   111.10643598   338.94359522
 O     43  42  40     1.196112867208   124.72682656   158.59481130
 H     41  39   2     1.086124952453   109.88663420    19.60082191
 H     44  40  39     1.089312004577   110.21683901   226.63682446
 O     24  12   5     2.726508863359   145.71245823    61.96015124
 C     49  24  12     1.193825005508   116.01193808   347.65505017
 O     50  49  24     1.347801597069   124.69166931    24.01137561
 O     50  49  24     1.350441350005   124.35647044   203.56564103
 C     51  50  49     1.437936531137   110.69229961   183.79583798
 C     52  50  49     1.436123796314   110.58753604   179.69770480
 H     53  51  50     1.088967850368   109.07012364   115.02229665
 H     53  51  50     1.089054004787   108.16968547   234.09629018
 H     54  52  50     1.089983623859   108.31249977   117.85906925
 H     54  52  50     1.088520602468   108.53850608   236.96391826

---------------------------
INTERNAL COORDINATES (A.U.)
---------------------------
 O      0   0   0     0.000000000000     0.00000000     0.00000000
 O      1   0   0    11.949784128627     0.00000000     0.00000000
 C      1   2   0     4.619561033346    63.29034729     0.00000000
 C      3   1   2     2.813424630245    94.50454524   359.67181200
 C      2   1   3     4.593885487358    45.24958289   318.38687869
 C      5   2   1     2.631604220772   146.18643044    29.15572916
 C      3   1   2     4.629880737645   117.05628028   177.89881360
 C      7   3   1     2.632658357969    28.62900031   181.71671679
 C      1   2   3     2.571609049111    91.72610076   359.81802582
 C      4   3   1     2.639699623039   121.92966797   292.64260587
 C      2   1   3     2.593513655251    25.47629266   357.35504565
 C      5   2   1     2.865412007812    93.19334502   213.46369014
 C      7   3   1     2.867423968295   149.46969826   180.52121338
 C      7   3   1     2.634283670387    88.98492725     1.30684872
 C     10   4   3     2.622581228881   120.68641773   180.76767524
 C     14   7   3     2.620193293138   121.04799633   359.80576064
 C     12   5   2     2.846619439437   114.09501324   302.16725767
 C     13   7   3     2.842063286037   113.45839530    64.59558868
 C     17  12   5     2.514949856901   125.01943435   125.93984833
 C     18  13   7     2.509134208953   125.21440752   237.30863324
 H      6   5   2     2.048108212633   118.44076554   183.33125613
 H      8   7   3     2.049139459522   119.20421332   180.33646138
 H     10   4   3     2.046872919975   119.94130783   359.81613878
 H     12   5   2     2.068984055657   110.24500720    66.29678625
 H     12   5   2     2.066648478538   107.61251749   181.44748103
 H     13   7   3     2.068182009696   110.22517817   301.89588171
 H     13   7   3     2.069548921407   108.29168436   185.71655678
 H     14   7   3     2.049183100483   119.72551637   179.54824518
 H     15  10   4     2.045902910458   120.76132058   178.97554129
 H     16  14   7     2.045944012129   121.03245925   180.27331604
 H     17  12   5     2.055124422845   115.90996310   306.06831032
 H     18  13   7     2.055069140327   115.55087437    56.88020543
 H      1   2   3     1.833159817421    23.56660755   200.29030394
 H      2   1   3     1.832459657420   127.04264760   303.95292658
 H     19  17  12     2.046386137691   121.58571420   179.30557128
 H     19  17  12     2.050953476200   121.51716104     0.77169947
 H     20  18  13     2.046589539530   121.66668683   180.14713941
 H     20  18  13     2.050240889897   121.56157325   359.93639979
 H      2   1   3     8.876563733161    70.07701649   201.90969418
 H     39   2   1     4.565331572378    70.99832182   258.97276265
 C     39   2   1     2.059410499707    18.52940131   329.42269425
 O     40  39   2     3.893228130451    83.35627154    67.34485439
 C     42  40  39     2.542653915963   128.20245988   359.65433492
 C     40  39   2     2.056246273045    65.93567016    27.87843232
 O     43  42  40     2.542838070708   111.10643598   338.94359522
 O     43  42  40     2.260325744282   124.72682656   158.59481130
 H     41  39   2     2.052478707354   109.88663420    19.60082191
 H     44  40  39     2.058501363044   110.21683901   226.63682446
 O     24  12   5     5.152355053458   145.71245823    61.96015124
 C     49  24  12     2.256002312237   116.01193808   347.65505017
 O     50  49  24     2.546975901322   124.69166931    24.01137561
 O     50  49  24     2.551964311432   124.35647044   203.56564103
 C     51  50  49     2.717306241810   110.69229961   183.79583798
 C     52  50  49     2.713880669441   110.58753604   179.69770480
 H     53  51  50     2.057851005840   109.07012364   115.02229665
 H     53  51  50     2.058013814098   108.16968547   234.09629018
 H     54  52  50     2.059770539553   108.31249977   117.85906925
 H     54  52  50     2.057005829796   108.53850608   236.96391826

---------------------
BASIS SET INFORMATION
---------------------
There are 3 groups of distinct atoms

 Group   1 Type O   : 11s6p2d1f contracted to 5s3p2d1f pattern {62111/411/11/1}
 Group   2 Type C   : 11s6p2d1f contracted to 5s3p2d1f pattern {62111/411/11/1}
 Group   3 Type H   : 5s1p contracted to 3s1p pattern {311/1}

Atom   0O    basis set group =>   1
Atom   1O    basis set group =>   1
Atom   2C    basis set group =>   2
Atom   3C    basis set group =>   2
Atom   4C    basis set group =>   2
Atom   5C    basis set group =>   2
Atom   6C    basis set group =>   2
Atom   7C    basis set group =>   2
Atom   8C    basis set group =>   2
Atom   9C    basis set group =>   2
Atom  10C    basis set group =>   2
Atom  11C    basis set group =>   2
Atom  12C    basis set group =>   2
Atom  13C    basis set group =>   2
Atom  14C    basis set group =>   2
Atom  15C    basis set group =>   2
Atom  16C    basis set group =>   2
Atom  17C    basis set group =>   2
Atom  18C    basis set group =>   2
Atom  19C    basis set group =>   2
Atom  20H    basis set group =>   3
Atom  21H    basis set group =>   3
Atom  22H    basis set group =>   3
Atom  23H    basis set group =>   3
Atom  24H    basis set group =>   3
Atom  25H    basis set group =>   3
Atom  26H    basis set group =>   3
Atom  27H    basis set group =>   3
Atom  28H    basis set group =>   3
Atom  29H    basis set group =>   3
Atom  30H    basis set group =>   3
Atom  31H    basis set group =>   3
Atom  32H    basis set group =>   3
Atom  33H    basis set group =>   3
Atom  34H    basis set group =>   3
Atom  35H    basis set group =>   3
Atom  36H    basis set group =>   3
Atom  37H    basis set group =>   3
Atom  38H    basis set group =>   3
Atom  39H    basis set group =>   3
Atom  40C    basis set group =>   2
Atom  41O    basis set group =>   1
Atom  42C    basis set group =>   2
Atom  43C    basis set group =>   2
Atom  44O    basis set group =>   1
Atom  45O    basis set group =>   1
Atom  46H    basis set group =>   3
Atom  47H    basis set group =>   3
Atom  48O    basis set group =>   1
Atom  49C    basis set group =>   2
Atom  50O    basis set group =>   1
Atom  51O    basis set group =>   1
Atom  52C    basis set group =>   2
Atom  53C    basis set group =>   2
Atom  54H    basis set group =>   3
Atom  55H    basis set group =>   3
Atom  56H    basis set group =>   3
Atom  57H    basis set group =>   3
---------------------------------
AUXILIARY/J BASIS SET INFORMATION
---------------------------------
There are 3 groups of distinct atoms

 Group   1 Type O   : 12s5p4d2f1g contracted to 6s4p3d1f1g pattern {711111/2111/211/2/1}
 Group   2 Type C   : 12s5p4d2f1g contracted to 6s4p3d1f1g pattern {711111/2111/211/2/1}
 Group   3 Type H   : 5s2p1d contracted to 3s1p1d pattern {311/2/1}

Atom   0O    basis set group =>   1
Atom   1O    basis set group =>   1
Atom   2C    basis set group =>   2
Atom   3C    basis set group =>   2
Atom   4C    basis set group =>   2
Atom   5C    basis set group =>   2
Atom   6C    basis set group =>   2
Atom   7C    basis set group =>   2
Atom   8C    basis set group =>   2
Atom   9C    basis set group =>   2
Atom  10C    basis set group =>   2
Atom  11C    basis set group =>   2
Atom  12C    basis set group =>   2
Atom  13C    basis set group =>   2
Atom  14C    basis set group =>   2
Atom  15C    basis set group =>   2
Atom  16C    basis set group =>   2
Atom  17C    basis set group =>   2
Atom  18C    basis set group =>   2
Atom  19C    basis set group =>   2
Atom  20H    basis set group =>   3
Atom  21H    basis set group =>   3
Atom  22H    basis set group =>   3
Atom  23H    basis set group =>   3
Atom  24H    basis set group =>   3
Atom  25H    basis set group =>   3
Atom  26H    basis set group =>   3
Atom  27H    basis set group =>   3
Atom  28H    basis set group =>   3
Atom  29H    basis set group =>   3
Atom  30H    basis set group =>   3
Atom  31H    basis set group =>   3
Atom  32H    basis set group =>   3
Atom  33H    basis set group =>   3
Atom  34H    basis set group =>   3
Atom  35H    basis set group =>   3
Atom  36H    basis set group =>   3
Atom  37H    basis set group =>   3
Atom  38H    basis set group =>   3
Atom  39H    basis set group =>   3
Atom  40C    basis set group =>   2
Atom  41O    basis set group =>   1
Atom  42C    basis set group =>   2
Atom  43C    basis set group =>   2
Atom  44O    basis set group =>   1
Atom  45O    basis set group =>   1
Atom  46H    basis set group =>   3
Atom  47H    basis set group =>   3
Atom  48O    basis set group =>   1
Atom  49C    basis set group =>   2
Atom  50O    basis set group =>   1
Atom  51O    basis set group =>   1
Atom  52C    basis set group =>   2
Atom  53C    basis set group =>   2
Atom  54H    basis set group =>   3
Atom  55H    basis set group =>   3
Atom  56H    basis set group =>   3
Atom  57H    basis set group =>   3
--------------------------------------------------------------------------
WARNING: There was an error initializing an OpenFabrics device.

  Local host:   ga00
  Local device: mlx5_0
--------------------------------------------------------------------------


           ************************************************************
           *        Program running with 25 parallel MPI-processes    *
           *              working on a common directory               *
           ************************************************************
------------------------------------------------------------------------------
                             ORCA STARTUP CALCULATIONS
                           -- RI-GTO INTEGRALS CHOSEN --
------------------------------------------------------------------------------
------------------------------------------------------------------------------
                   ___                                                        
                  /   \      - P O W E R E D   B Y -                         
                 /     \                                                     
                 |  |  |   _    _      __       _____    __    __             
                 |  |  |  | |  | |    /  \     |  _  \  |  |  /  |          
                  \  \/   | |  | |   /    \    | | | |  |  | /  /          
                 / \  \   | |__| |  /  /\  \   | |_| |  |  |/  /          
                |  |  |   |  __  | /  /__\  \  |    /   |      \           
                |  |  |   | |  | | |   __   |  |    \   |  |\   \          
                \     /   | |  | | |  |  |  |  | |\  \  |  | \   \       
                 \___/    |_|  |_| |__|  |__|  |_| \__\ |__|  \__/        
                                                                              
                      - O R C A' S   B I G   F R I E N D -                    
                                      &                                       
                       - I N T E G R A L  F E E D E R -                       
                                                                              
 v1 FN, 2020, v2 2021, v3 2022-2024                                           
------------------------------------------------------------------------------


----------------------
SHARK INTEGRAL PACKAGE
----------------------

Number of atoms                             ...     58
Number of basis functions                   ...   1148
Number of shells                            ...    456
Maximum angular momentum                    ...      3
Integral batch strategy                     ... SHARK/LIBINT Hybrid
RI-J (if used) integral strategy            ... SPLIT-RIJ (Revised 2003 algorithm where possible)
Printlevel                                  ...      1
Contraction scheme used                     ... SEGMENTED contraction
Prescreening option                         ... SCHWARTZ
   Thresh                                   ... 2.500e-11
   Tcut                                     ... 2.500e-12
   Tpresel                                  ... 2.500e-12 
Coulomb Range Separation                    ... NOT USED
Exchange Range Separation                   ... NOT USED
Multipole approximations                    ... NOT USED
Finite Nucleus Model                        ... NOT USED
CABS basis                                  ... NOT available
Auxiliary Coulomb fitting basis             ... AVAILABLE
   # of basis functions in Aux-J            ...   1854
   # of shells in Aux-J                     ...    610
   Maximum angular momentum in Aux-J        ...      4
Auxiliary J/K fitting basis                 ... NOT available
Auxiliary Correlation fitting basis         ... NOT available
Auxiliary 'external' fitting basis          ... NOT available

Checking pre-screening integrals            ... done (  0.0 sec) Dimension = 456
Check shell pair data                       ... done (  0.0 sec)
Shell pair information
Shell pair cut-off parameter TPreSel        ...   2.5e-12
Total number of shell pairs                 ...    104196
Shell pairs after pre-screening             ...     62902
Total number of primitive shell pairs       ...    317988
Primitive shell pairs kept                  ...    121188
          la=0 lb=0:  16709 shell pairs
          la=1 lb=0:  18609 shell pairs
          la=1 lb=1:   5212 shell pairs
          la=2 lb=0:   8676 shell pairs
          la=2 lb=1:   4955 shell pairs
          la=2 lb=2:   1169 shell pairs
          la=3 lb=0:   3953 shell pairs
          la=3 lb=1:   2337 shell pairs
          la=3 lb=2:   1037 shell pairs
          la=3 lb=3:    245 shell pairs

Calculating one electron integrals          ... done (  0.1 sec)
Calculating RI/J V-Matrix + Cholesky decomp.... done (  0.2 sec)
Calculating Nuclear repulsion               ... done (  0.0 sec) ENN=   3336.958881566839 Eh

Diagonalization of the overlap matrix:
Smallest eigenvalue                        ... 5.170e-06
Time for diagonalization                   ...    0.221 sec
Threshold for overlap eigenvalues          ... 1.000e-07
Number of eigenvalues below threshold      ... 0
Time for construction of square roots      ...    0.095 sec
Total time needed                          ...    0.325 sec

-------------------
DFT GRID GENERATION
-------------------

General Integration Accuracy     IntAcc      ... 4.388
Radial Grid Type                 RadialGrid  ... OptM3 with GC (2021)
Angular Grid (max. ang.)         AngularGrid ... 4 (Lebedev-302)
Angular grid pruning method      GridPruning ... 4 (adaptive)
Weight generation scheme         WeightScheme... mBecke (2022)
Basis function cutoff            BFCut       ... 1.0000e-11
Integration weight cutoff        WCut        ... 1.0000e-14
Partially contracted basis set               ... off
Rotationally invariant grid construction     ... off
Angular grids for H and He will be reduced by one unit

Total number of grid points                  ...   273860
Total number of batches                      ...     4309
Average number of points per batch           ...       63
Average number of grid points per atom       ...     4722

--------------------
COSX GRID GENERATION
--------------------

GRIDX 1
-------
General Integration Accuracy     IntAcc      ... 3.816
Radial Grid Type                 RadialGrid  ... OptM3 with GC (2021)
Angular Grid (max. ang.)         AngularGrid ... 1 (Lebedev-50)
Angular grid pruning method      GridPruning ... 4 (adaptive)
Weight generation scheme         WeightScheme... mBecke (2022)
Basis function cutoff            BFCut       ... 1.0000e-11
Integration weight cutoff        WCut        ... 1.0000e-14
Partially contracted basis set               ... on
Rotationally invariant grid construction     ... off
Angular grids for H and He will be reduced by one unit

Total number of grid points                  ...    34720
Total number of batches                      ...      307
Average number of points per batch           ...      113
Average number of grid points per atom       ...      599
UseSFitting                                  ... on

GRIDX 2
-------
General Integration Accuracy     IntAcc      ... 4.020
Radial Grid Type                 RadialGrid  ... OptM3 with GC (2021)
Angular Grid (max. ang.)         AngularGrid ... 2 (Lebedev-110)
Angular grid pruning method      GridPruning ... 4 (adaptive)
Weight generation scheme         WeightScheme... mBecke (2022)
Basis function cutoff            BFCut       ... 1.0000e-11
Integration weight cutoff        WCut        ... 1.0000e-14
Partially contracted basis set               ... on
Rotationally invariant grid construction     ... off
Angular grids for H and He will be reduced by one unit

Total number of grid points                  ...    74822
Total number of batches                      ...      617
Average number of points per batch           ...      121
Average number of grid points per atom       ...     1290
UseSFitting                                  ... on

GRIDX 3
-------
General Integration Accuracy     IntAcc      ... 4.338
Radial Grid Type                 RadialGrid  ... OptM3 with GC (2021)
Angular Grid (max. ang.)         AngularGrid ... 3 (Lebedev-194)
Angular grid pruning method      GridPruning ... 4 (adaptive)
Weight generation scheme         WeightScheme... mBecke (2022)
Basis function cutoff            BFCut       ... 1.0000e-11
Integration weight cutoff        WCut        ... 1.0000e-14
Partially contracted basis set               ... on
Rotationally invariant grid construction     ... off
Angular grids for H and He will be reduced by one unit

Total number of grid points                  ...   163160
Total number of batches                      ...     1303
Average number of points per batch           ...      125
Average number of grid points per atom       ...     2813
UseSFitting                                  ... on
Initializing property integral containers    ... done (  0.0 sec)

SHARK setup successfully completed in   4.2 seconds

Maximum memory used throughout the entire STARTUP-calculation: 129.5 MB
[ga00:3226436] 24 more processes have sent help message help-mpi-btl-openib.txt / error in device init
[ga00:3226436] Set MCA parameter "orte_base_help_aggregate" to 0 to see all help / error messages
--------------------------------------------------------------------------
WARNING: There was an error initializing an OpenFabrics device.

  Local host:   ga00
  Local device: mlx5_0
--------------------------------------------------------------------------


           ************************************************************
           *        Program running with 25 parallel MPI-processes    *
           *              working on a common directory               *
           ************************************************************
-------------------------------------------------------------------------------
                                 ORCA GUESS
                   Start orbitals & Density for SCF / CASSCF
-------------------------------------------------------------------------------

------------
SCF SETTINGS
------------
Hamiltonian:
 Density Functional     Method          .... DFT(GTOs)
 Exchange Functional    Exchange        .... B88
   X-Alpha parameter    XAlpha          ....  0.666667
   Becke's b parameter  XBeta           ....  0.004200
 Correlation Functional Correlation     .... LYP
 LDA part of GGA corr.  LDAOpt          .... VWN-5
 Gradients option       PostSCFGGA      .... off
 Hybrid DFT is turned on
   Fraction HF Exchange ScalHFX         ....  0.200000
   Scaling of DF-GGA-X  ScalDFX         ....  0.720000
   Scaling of DF-GGA-C  ScalDFC         ....  0.810000
   Scaling of DF-LDA-C  ScalLDAC        ....  1.000000
   Perturbative correction              ....  0.000000
   NL short-range parameter             ....  4.800000
 RI-approximation to the Coulomb term is turned on
   Number of AuxJ basis functions       .... 1854
   RIJ-COSX (HFX calculated with COS-X)).... on


General Settings:
 Integral files         IntName         .... honokiol2-opt_EC2_closer
 Hartree-Fock type      HFTyp           .... RHF
 Total Charge           Charge          ....    0
 Multiplicity           Mult            ....    1
 Number of Electrons    NEL             ....  234
 Basis Dimension        Dim             .... 1148
 Nuclear Repulsion      ENuc            ....   3336.9588815668 Eh

Convergence Acceleration:
 AO-DIIS                CNVDIIS         .... on
   Start iteration      DIISMaxIt       ....    12
   Startup error        DIISStart       ....  0.200000
   # of expansion vecs  DIISMaxEq       ....     5
   Bias factor          DIISBfac        ....   1.050
   Max. coefficient     DIISMaxC        ....  10.000
 MO-DIIS                CNVKDIIS        .... off
 Trust-Rad. Augm. Hess. CNVTRAH         .... auto
   Auto Start mean grad. ratio tolernc. ....  1.125000
   Auto Start start iteration           ....    50
   Auto Start num. interpolation iter.  ....    10
   Max. Number of Micro iterations      ....    24
   Max. Number of Macro iterations      .... Maxiter - #DIIS iter
   Number of Davidson start vectors     ....     2
   Converg. threshold    (grad. norm)   ....   1.000e-05
   Grad. Scal. Fac. for Micro threshold ....   0.100
   Minimum threshold for Micro iter.    ....   1.000e-02
   NR start threshold (gradient norm)   ....   1.000e-04
   Initial trust radius                 ....   0.400
   Minimum AH scaling param. (alpha)    ....   1.000
   Maximum AH scaling param. (alpha)    .... 1000.000
   Quad. conv. algorithm                .... NR
   White noise on init. David. guess    .... on
   Maximum white noise                  ....   0.010
   Pseudo random numbers                .... off
   Inactive MOs                         .... canonical
   Orbital update algorithm             .... Taylor
   Preconditioner                       .... Diag
   Full preconditioner red. dimension   ....   250
 SOSCF                  CNVSOSCF        .... on
   Start iteration      SOSCFMaxIt      ....   150
[...]
 C      1   2   3     1.362716158267    92.07602667   359.67399650
 C      4   3   1     1.396502674828   121.90811499   289.00525761
 C      2   1   3     1.371909084870    25.22061626   356.40213860
 C      5   2   1     1.515955186582    93.30745417   215.17916846
 C      7   3   1     1.517380971431   149.48495829   180.67578716
 C      7   3   1     1.393949975917    89.00010707     1.39891243
 C     10   4   3     1.387402874074   120.69534747   180.58624260
 C     14   7   3     1.386798713631   121.05351264   359.92095128
 C     12   5   2     1.506335836757   114.34067101   303.09596216
 C     13   7   3     1.503937161617   113.47642443    64.29668336
 C     17  12   5     1.330722309380   125.02023413   126.45892044
 C     18  13   7     1.327743651983   125.20725283   237.33765600
 H      6   5   2     1.083786997130   118.41018113   182.63195429
 H      8   7   3     1.084341707697   119.24640854   180.13336847
 H     10   4   3     1.083178876280   119.87633355   359.75514524
 H     12   5   2     1.095086450554   110.11571621    67.10994225
 H     12   5   2     1.093553578612   107.72898715   182.22287953
 H     13   7   3     1.094434018782   110.18111921   301.61617690
 H     13   7   3     1.095126734847   108.30703557   185.44977857
 H     14   7   3     1.084327931186   119.72538636   179.59373374
 H     15  10   4     1.082482361469   120.86078352   179.17162095
 H     16  14   7     1.082652812177   121.04280619   180.09826654
 H     17  12   5     1.087502305777   115.86713704   306.48012264
 H     18  13   7     1.087491829873   115.56023199    56.93420518
 H      1   2   3     0.970433687409    25.33433578   210.48405773
 H      2   1   3     0.969577751444   125.10943375   297.20991473
 H     19  17  12     1.082848437405   121.59484980   179.20062879
 H     19  17  12     1.085345031192   121.50725339     0.66390434
 H     20  18  13     1.083005443645   121.65553689   180.17324257
 H     20  18  13     1.084943288074   121.58385374   359.95861474
 H      2   1   3     4.984057322190    68.26995345   197.48499685
 H     39   2   1     2.421949000316    62.17172487   251.50283735
 C     39   2   1     1.090857975838    12.25738423   354.08780248
 O     40  39   2     2.061341250201    80.97169184    66.35550508
 C     42  40  39     1.345100846883   129.80731933   352.32941602
 C     40  39   2     1.087656907427    65.27749699    25.74729602
 O     43  42  40     1.348218059673   110.99812257   342.40875132
 O     43  42  40     1.195933852671   124.93199878   161.99675650
 H     41  39  45     1.086425208542   109.60096364   242.04946271
 H     44  40  39     1.089807300997   110.49548453   223.36955708
 O     47  41  39     2.819260131758   117.00782297    77.62069932
 C     49  47  41     1.194800278116   104.39523980    20.49117216
 O     50  49  47     1.348755839264   124.59458443   101.16427979
 O     50  49  47     1.351205120679   124.60431278   280.89899180
 C     51  50  49     1.439937404132   110.09983489   176.20578547
 C     52  50  49     1.439564342008   109.57495349   170.99795934
 H     53  51  50     1.087661338297   108.86124542   134.06984817
 H     53  51  50     1.091345182451   108.29602325   253.77013858
 H     54  52  50     1.087907391713   108.48718115   137.80764536
 H     54  52  50     1.089695185782   108.57286479   257.57040142

---------------------------
INTERNAL COORDINATES (A.U.)
---------------------------
 O      0   0   0     0.000000000000     0.00000000     0.00000000
 O      1   0   0    11.924857190823     0.00000000     0.00000000
 C      1   2   0     4.617585937779    63.56851891     0.00000000
 C      3   1   2     2.814956192558    94.21095509   359.75244907
 C      2   1   3     4.596386433693    44.22640212   315.71893382
 C      5   2   1     2.632358686411   146.11324046    31.17760248
 C      3   1   2     4.628305384076   117.14621029   177.77814119
 C      7   3   1     2.632934193017    28.65424587   181.77146414
 C      1   2   3     2.575160337394    92.07602667   359.67399650
 C      4   3   1     2.639007600714   121.90811499   289.00525761
 C      2   1   3     2.592532451042    25.22061626   356.40213860
 C      5   2   1     2.864740133938    93.30745417   215.17916846
 C      7   3   1     2.867434476828   149.48495829   180.67578716
 C      7   3   1     2.634183698869    89.00010707     1.39891243
 C     10   4   3     2.621811469415   120.69534747   180.58624260
 C     14   7   3     2.620669771638   121.05351264   359.92095128
 C     12   5   2     2.846562197182   114.34067101   303.09596216
 C     13   7   3     2.842029358083   113.47642443    64.29668336
 C     17  12   5     2.514700725027   125.02023413   126.45892044
 C     18  13   7     2.509071878301   125.20725283   237.33765600
 H      6   5   2     2.048060612080   118.41018113   182.63195429
 H      8   7   3     2.049108863136   119.24640854   180.13336847
 H     10   4   3     2.046911430218   119.87633355   359.75514524
 H     12   5   2     2.069413484515   110.11571621    67.10994225
 H     12   5   2     2.066516776347   107.72898715   182.22287953
 H     13   7   3     2.068180567144   110.18111921   301.61617690
 H     13   7   3     2.069489610796   108.30703557   185.44977857
 H     14   7   3     2.049082829302   119.72538636   179.59373374
 H     15  10   4     2.045595207977   120.86078352   179.17162095
 H     16  14   7     2.045917313135   121.04280619   180.09826654
 H     17  12   5     2.055081527927   115.86713704   306.48012264
 H     18  13   7     2.055061731336   115.56023199    56.93420518
 H      1   2   3     1.833853900335    25.33433578   210.48405773
 H      2   1   3     1.832236415772   125.10943375   297.20991473
 H     19  17  12     2.046286991240   121.59484980   179.20062879
 H     19  17  12     2.051004869765   121.50725339     0.66390434
 H     20  18  13     2.046583690035   121.65553689   180.17324257
 H     20  18  13     2.050245685296   121.58385374   359.95861474
 H      2   1   3     9.418503374704    68.26995345   197.48499685
 H     39   2   1     4.576820320921    62.17172487   251.50283735
 C     39   2   1     2.061422825337    12.25738423   354.08780248
 O     40  39   2     3.895370431434    80.97169184    66.35550508
 C     42  40  39     2.541872223115   129.80731933   352.32941602
 C     40  39   2     2.055373682705    65.27749699    25.74729602
 O     43  42  40     2.547762901588   110.99812257   342.40875132
 O     43  42  40     2.259987455833   124.93199878   161.99675650
 H     41  39  45     2.053046109132   109.60096364   242.04946271
 H     44  40  39     2.059437337633   110.49548453   223.36955708
 O     47  41  39     5.327629549306   117.00782297    77.62069932
 C     49  47  41     2.257845310372   104.39523980    20.49117216
 O     50  49  47     2.548779157737   124.59458443   101.16427979
 O     50  49  47     2.553407628836   124.60431278   280.89899180
 C     51  50  49     2.721087343799   110.09983489   176.20578547
 C     52  50  49     2.720382358555   109.57495349   170.99795934
 H     53  51  50     2.055382055835   108.86124542   134.06984817
 H     53  51  50     2.062343512407   108.29602325   253.77013858
 H     54  52  50     2.055847029405   108.48718115   137.80764536
 H     54  52  50     2.059225470580   108.57286479   257.57040142

--------------------------------------------------------------------------
WARNING: There was an error initializing an OpenFabrics device.

  Local host:   ga00
  Local device: mlx5_0
--------------------------------------------------------------------------


           ************************************************************
           *        Program running with 25 parallel MPI-processes    *
           *              working on a common directory               *
           ************************************************************
------------------------------------------------------------------------------
                   ___                                                        
                  /   \      - P O W E R E D   B Y -                         
                 /     \                                                     
                 |  |  |   _    _      __       _____    __    __             
                 |  |  |  | |  | |    /  \     |  _  \  |  |  /  |          
                  \  \/   | |  | |   /    \    | | | |  |  | /  /          
                 / \  \   | |__| |  /  /\  \   | |_| |  |  |/  /          
                |  |  |   |  __  | /  /__\  \  |    /   |      \           
                |  |  |   | |  | | |   __   |  |    \   |  |\   \          
                \     /   | |  | | |  |  |  |  | |\  \  |  | \   \       
                 \___/    |_|  |_| |__|  |__|  |_| \__\ |__|  \__/        
                                                                              
                      - O R C A' S   B I G   F R I E N D -                    
                                      &                                       
                       - I N T E G R A L  F E E D E R -                       
                                                                              
 v1 FN, 2020, v2 2021, v3 2022-2024                                           
------------------------------------------------------------------------------


----------------------
SHARK INTEGRAL PACKAGE
----------------------

Number of atoms                             ...     58
Number of basis functions                   ...   1148
Number of shells                            ...    456
Maximum angular momentum                    ...      3
Integral batch strategy                     ... SHARK/LIBINT Hybrid
RI-J (if used) integral strategy            ... SPLIT-RIJ (Revised 2003 algorithm where possible)
Printlevel                                  ...      1
Contraction scheme used                     ... SEGMENTED contraction
Prescreening option                         ... SCHWARTZ
   Thresh                                   ... 2.500e-11
   Tcut                                     ... 2.500e-12
   Tpresel                                  ... 2.500e-12 
Coulomb Range Separation                    ... NOT USED
Exchange Range Separation                   ... NOT USED
Multipole approximations                    ... NOT USED
Finite Nucleus Model                        ... NOT USED
CABS basis                                  ... NOT available
Auxiliary Coulomb fitting basis             ... AVAILABLE
   # of basis functions in Aux-J            ...   1854
   # of shells in Aux-J                     ...    610
   Maximum angular momentum in Aux-J        ...      4
Auxiliary J/K fitting basis                 ... NOT available
Auxiliary Correlation fitting basis         ... NOT available
Auxiliary 'external' fitting basis          ... NOT available

Checking pre-screening integrals            ... done (  0.0 sec) Dimension = 456
Check shell pair data                       ... done (  0.0 sec)
Shell pair information
Shell pair cut-off parameter TPreSel        ...   2.5e-12
Total number of shell pairs                 ...    104196
Shell pairs after pre-screening             ...     63083
Total number of primitive shell pairs       ...    317988
Primitive shell pairs kept                  ...    121450
          la=0 lb=0:  16724 shell pairs
          la=1 lb=0:  18659 shell pairs
          la=1 lb=1:   5238 shell pairs
          la=2 lb=0:   8708 shell pairs
          la=2 lb=1:   4986 shell pairs
          la=2 lb=2:   1178 shell pairs
          la=3 lb=0:   3963 shell pairs
          la=3 lb=1:   2339 shell pairs
          la=3 lb=2:   1043 shell pairs
          la=3 lb=3:    245 shell pairs

Calculating one electron integrals          ... done (  0.1 sec)
Calculating RI/J V-Matrix + Cholesky decomp.... done (  0.2 sec)
Calculating Nuclear repulsion               ... done (  0.0 sec) ENN=   3341.190806757184 Eh

Diagonalization of the overlap matrix:
Smallest eigenvalue                        ... 5.285e-06
Time for diagonalization                   ...    0.222 sec
Threshold for overlap eigenvalues          ... 1.000e-07
Number of eigenvalues below threshold      ... 0
Time for construction of square roots      ...    0.098 sec
Total time needed                          ...    0.329 sec

-------------------
DFT GRID GENERATION
-------------------

General Integration Accuracy     IntAcc      ... 4.388
Radial Grid Type                 RadialGrid  ... OptM3 with GC (2021)
Angular Grid (max. ang.)         AngularGrid ... 4 (Lebedev-302)
Angular grid pruning method      GridPruning ... 4 (adaptive)
Weight generation scheme         WeightScheme... mBecke (2022)
Basis function cutoff            BFCut       ... 1.0000e-11
Integration weight cutoff        WCut        ... 1.0000e-14
Partially contracted basis set               ... off
Rotationally invariant grid construction     ... off
Angular grids for H and He will be reduced by one unit

Total number of grid points                  ...   273856
Total number of batches                      ...     4307
Average number of points per batch           ...       63
Average number of grid points per atom       ...     4722

--------------------
COSX GRID GENERATION
--------------------

GRIDX 1
-------
General Integration Accuracy     IntAcc      ... 3.816
Radial Grid Type                 RadialGrid  ... OptM3 with GC (2021)
Angular Grid (max. ang.)         AngularGrid ... 1 (Lebedev-50)
Angular grid pruning method      GridPruning ... 4 (adaptive)
Weight generation scheme         WeightScheme... mBecke (2022)
Basis function cutoff            BFCut       ... 1.0000e-11
Integration weight cutoff        WCut        ... 1.0000e-14
Partially contracted basis set               ... on
Rotationally invariant grid construction     ... off
Angular grids for H and He will be reduced by one unit

Total number of grid points                  ...    34711
Total number of batches                      ...      307
Average number of points per batch           ...      113
Average number of grid points per atom       ...      598
UseSFitting                                  ... on

GRIDX 2
-------
General Integration Accuracy     IntAcc      ... 4.020
Radial Grid Type                 RadialGrid  ... OptM3 with GC (2021)
Angular Grid (max. ang.)         AngularGrid ... 2 (Lebedev-110)
Angular grid pruning method      GridPruning ... 4 (adaptive)
Weight generation scheme         WeightScheme... mBecke (2022)
Basis function cutoff            BFCut       ... 1.0000e-11
Integration weight cutoff        WCut        ... 1.0000e-14
Partially contracted basis set               ... on
Rotationally invariant grid construction     ... off
Angular grids for H and He will be reduced by one unit

Total number of grid points                  ...    74776
Total number of batches                      ...      615
Average number of points per batch           ...      121
Average number of grid points per atom       ...     1289
UseSFitting                                  ... on

GRIDX 3
-------
General Integration Accuracy     IntAcc      ... 4.338
Radial Grid Type                 RadialGrid  ... OptM3 with GC (2021)
Angular Grid (max. ang.)         AngularGrid ... 3 (Lebedev-194)
Angular grid pruning method      GridPruning ... 4 (adaptive)
Weight generation scheme         WeightScheme... mBecke (2022)
Basis function cutoff            BFCut       ... 1.0000e-11
Integration weight cutoff        WCut        ... 1.0000e-14
Partially contracted basis set               ... on
Rotationally invariant grid construction     ... off
Angular grids for H and He will be reduced by one unit

Total number of grid points                  ...   163127
Total number of batches                      ...     1302
Average number of points per batch           ...      125
Average number of grid points per atom       ...     2813
UseSFitting                                  ... on
Initializing property integral containers    ... done (  0.0 sec)

SHARK setup successfully completed in   4.2 seconds

Maximum memory used throughout the entire STARTUP-calculation: 140.1 MB
[ga00:3287982] 24 more processes have sent help message help-mpi-btl-openib.txt / error in device init
[ga00:3287982] Set MCA parameter "orte_base_help_aggregate" to 0 to see all help / error messages
--------------------------------------------------------------------------
WARNING: There was an error initializing an OpenFabrics device.

  Local host:   ga00
  Local device: mlx5_0
--------------------------------------------------------------------------


           ************************************************************
           *        Program running with 25 parallel MPI-processes    *
           *              working on a common directory               *
           ************************************************************
Occupation numbers will be reassigned to an Aufbau configuration
             **** ENERGY FILE WAS UPDATED (honokiol2-opt_EC2_closer.en.tmp) ****
Finished Guess after   1.8 sec
Maximum memory used throughout the entire GUESS-calculation: 137.4 MB
[ga00:3288156] 24 more processes have sent help message help-mpi-btl-openib.txt / error in device init
[ga00:3288156] Set MCA parameter "orte_base_help_aggregate" to 0 to see all help / error messages
--------------------------------------------------------------------------
WARNING: There was an error initializing an OpenFabrics device.

  Local host:   ga00
  Local device: mlx5_0
--------------------------------------------------------------------------


           ************************************************************
           *        Program running with 25 parallel MPI-processes    *
           *              working on a common directory               *
           ************************************************************
----------------------------------------D-I-I-S--------------------------------------------
Iteration    Energy (Eh)           Delta-E    RMSDP     MaxDP     DIISErr   Damp  Time(sec)
-------------------------------------------------------------------------------------------
               ***  Starting incremental Fock matrix formation  ***
[ga00:3288290] 24 more processes have sent help message help-mpi-btl-openib.txt / error in device init
[ga00:3288290] Set MCA parameter "orte_base_help_aggregate" to 0 to see all help / error messages
    1    -1531.7320104892046402     0.00e+00  2.04e-05  1.52e-03  5.51e-03  0.700   8.3
    2    -1531.7321197555625076    -1.09e-04  1.79e-05  1.32e-03  4.26e-03  0.700   3.8
                               ***Turning on AO-DIIS***
                              *** Initializing SOSCF ***
---------------------------------------S-O-S-C-F--------------------------------------
Iteration    Energy (Eh)           Delta-E    RMSDP     MaxDP     MaxGrad    Time(sec)
--------------------------------------------------------------------------------------
    3    -1531.7322053369948662    -8.56e-05  4.88e-05  4.59e-03  3.16e-03     3.7
               *** Restarting incremental Fock matrix formation ***
    4    -1531.7324237622656256    -2.18e-04  1.44e-05  1.75e-03  6.21e-05     8.0
    5    -1531.7324246422754186    -8.80e-07  5.70e-06  6.62e-04  8.23e-05     4.6
    6    -1531.7324251169870877    -4.75e-07  4.62e-06  3.36e-04  4.64e-05     4.2
    7    -1531.7324253817264434    -2.65e-07  1.39e-06  2.23e-04  1.69e-05     4.1
    8    -1531.7324253762621993     5.46e-09  1.26e-06  1.35e-04  1.73e-05     3.3
                 **** Energy Check signals convergence ****

               *****************************************************
               *                     SUCCESS                       *
               *           SCF CONVERGED AFTER   8 CYCLES          *
               *****************************************************

Recomputing exchange energy using gridx3       ...