
                                 *****************
                                 * O   R   C   A *
                                 *****************

                                            #,                                       
                                            ###                                      
                                            ####                                     
                                            #####                                    
                                            ######                                   
                                           ########,                                 
                                     ,,################,,,,,                         
                               ,,#################################,,                 
                          ,,##########################################,,             
                       ,#########################################, ''#####,          
                    ,#############################################,,   '####,        
                  ,##################################################,,,,####,       
                ,###########''''           ''''###############################       
              ,#####''   ,,,,##########,,,,          '''####'''          '####       
            ,##' ,,,,###########################,,,                        '##       
           ' ,,###''''                  '''############,,,                           
         ,,##''                                '''############,,,,        ,,,,,,###''
      ,#''                                            '''#######################'''  
     '                                                          ''''####''''         
             ,#######,   #######,   ,#######,      ##                                
            ,#'     '#,  ##    ##  ,#'     '#,    #''#        ,####,   ,####,        
            ##       ##  ##   ,#'  ##            #'  '#       #'       #'  '#        
            ##       ##  #######   ##           ,######,      #####,   #    #        
            '#,     ,#'  ##    ##  '#,     ,#' ,#      #,     #,   #   #,  ,#        
             '#######'   ##     ##  '#######'  #'      '#     '####' # '####'        



                #########################################################
                #                        -***-                          #
                #          Department of theory and spectroscopy        #
                #                                                       #
                #                      Frank Neese                      #
                #                                                       #
                #     Directorship, Architecture, Infrastructure        #
                #                    SHARK, DRIVERS                     #
                #        Core code/Algorithms in most modules           #
                #                                                       #
                #        Max Planck Institute fuer Kohlenforschung      #
                #                Kaiser Wilhelm Platz 1                 #
                #                 D-45470 Muelheim/Ruhr                 #
                #                      Germany                          #
                #                                                       #
                #                  All rights reserved                  #
                #                        -***-                          #
                #########################################################


                         Program Version 6.0.1  -  RELEASE   -


 With contributions from (in alphabetic order):
[Max-Planck-Institut fuer Kohlenforschung]                               
  Daniel Aravena         : Magnetic Suceptibility                        
  Michael Atanasov       : Ab Initio Ligand Field Theory (pilot matlab implementation)
  Alexander A. Auer      : GIAO ZORA, VPT2 properties, NMR spectrum      
  Ute Becker             : All parallelization in ORCA, NUMFREQ, NUMCALC 
  Giovanni Bistoni       : ED, misc. LED, open-shell LED, HFLD           
  Martin Brehm           : Molecular dynamics                            
  Dmytro Bykov           : pre 5.0 version of the SCF Hessian            
  Marcos Casanova-Páez   : Triplet and SCS-CIS(D). UHF-(DLPNO)-IP/EA/STEOM-CCSD. UHF-CVS-IP/STEOM-CCSD   
  Vijay G. Chilkuri      : MRCI spin determinant printing, contributions to CSF-ICE 
  Pauline Colinet        : FMM embedding                                 
  Dipayan Datta          : RHF DLPNO-CCSD density                        
  Achintya Kumar Dutta   : EOM-CC, STEOM-CC                              
  Nicolas Foglia         : Exact transition moments, OPA infrastructure, MCD improvements    
  Dmitry Ganyushin       : Spin-Orbit,Spin-Spin,Magnetic field MRCI      
  Miquel Garcia-Rates    : C-PCM and meta-GGA Hessian, CCSD/C-PCM, Gaussian charge scheme 
  Tiago L. C. Gouveia    : GS-ROHF, GS-ROCIS                             
  Yang Guo               : DLPNO-NEVPT2, F12-NEVPT2, CIM, IAO-localization        
  Andreas Hansen         : Spin unrestricted coupled pair/coupled cluster methods 
  Ingolf Harden          : AUTO-CI MPn and infrastructure                
  Benjamin Helmich-Paris : MC-RPA, TRAH-(SCF,CASSCF), AVAS, COSX integrals, SCF dyn. polar. 
  Lee Huntington         : MR-EOM, pCC                                   
  Robert Izsak           : Overlap fitted RIJCOSX, COSX-SCS-MP3, EOM     
  Riya Kayal             : Wick's Theorem for AUTO-CI, AUTO-CI UHF-CCSDT 
  Emily Kempfer          : AUTO-CI, RHF CISDT and CCSDT                  
  Christian Kollmar      : KDIIS, OOCD, Brueckner-CCSD(T), CCSD density, CASPT2, CASPT2-K, improved NEVPT2 
  Axel Koslowski         : Symmetry handling                             
  Simone Kossmann        : meta-GGA functionals, TD-DFT gradient, OOMP2, (MP2 Hessian; deprecated post 5.0) 
  Lucas Lang             : DCDCAS                                        
  Marvin Lechner         : AUTO-CI (C++ implementation), FIC-MRCC        
  Spencer Leger          : CASSCF response                               
  Dagmar Lenk            : GEPOL surface, SMD, ORCA-2-JSON               
  Dimitrios Liakos       : Extrapolation schemes; Compound Job, initial MDCI parallelization 
  Dimitrios Manganas     : Further ROCIS development; embedding schemes. LFT, Crystal Embedding 
  Dimitrios Pantazis     : SARC Basis sets                               
  Anastasios Papadopoulos: AUTO-CI, single reference methods and gradients 
  Taras Petrenko         : pre 6.0 DFT Hessian and TD-DFT gradient, (ASA, deprecated), ECA, 1-Electron XAS/XES, NRVS 
  Peter Pinski           : DLPNO-MP2, DLPNO-MP2 Gradient                 
  Christoph Reimann      : Effective Core Potentials                     
  Marius Retegan         : Local ZFS, SOC                                
  Christoph Riplinger    : Optimizer, TS searches, QM/MM, DLPNO-CCSD(T), (RO)-DLPNO pert. Triples 
  Michael Roemelt        : Original ROCIS implementation                 
  Masaaki Saitow         : Open-shell DLPNO-CCSD energy and density      
  Barbara Sandhoefer     : DKH picture change effects                    
  Kantharuban Sivalingam : CASSCF convergence/infrastructure, NEVPT2 and variants, FIC-MRCI 
  Bernardo de Souza      : ESD, SOC TD-DFT                               
  Georgi L. Stoychev     : AutoAux, RI-MP2 NMR, DLPNO-MP2 response, X2C  
  Van Anh Tran           : RI-MP2 g-tensors                              
  Willem Van den Heuvel  : Paramagnetic NMR                              
  Zikuan Wang            : NOTCH, Electric field optimization            
  Frank Wennmohs         : Technical directorship and infrastructure     
  Hang Xu                : AUTO-CI-Response properties                   
                                                                         
[FACCTs GmbH]                                                            
  Markus Bursch, Miquel Garcia-Rates, Christoph Riplinger, Bernardo de Souza, Georgi L. Stoychev 
                                                                 
  APM, Basis sets (HGBS, AHGBS, def-TZVP (Ac-Lr), def2-XVPD (La-Lu)), CI-OPT, improved COSX, DLPNO-Multilevel,           
  DOCKER, DRACO, updates on ESD, GOAT, IRC, LR-CPCM, MBIS, meta-GGA TD-DFT gradient, ML-optimized integration grids, 
  MM, NACMEs, nearIR, NEB, NEB-TS, NL-DFT gradient (VV10), 2- and 3-layer-ONIOM, interface openCOSMO-RS, QMMM,   
  Crystal-QMMM, SF, symmetry and pop. for TD-DFT, r2SCAN hybrids, SOLVATOR                                   
                                                                         
[Other institutions]                                                     
  V. Asgeirsson          : NEB                                           
  Christoph Bannwarth    : sTDA-DFT, sTD-DFT, PBEh-3c, B97-3c, D3        
  Sebastian Ehlert       : rSCAN, r2SCAN, r2SCAN-3c, D4, dhf basis sets  
  Marvin Friede          : D4 for Fr, Ra, Ac-Lr                          
  Lars Goerigk           : TD-DFT with DH, B97 family of functionals     
  Stefan Grimme          : VdW corrections, initial TS optimization, DFT functionals, gCP, sTDA/sTD-DF 
  Waldemar Hujo          : DFT-NL                                        
  H. Jonsson             : NEB                                           
  Holger Kruse           : gCP                                           
  Marcel Mueller         : wB97X-3c, vDZP basis set                      
  Hagen Neugebauer       : wr2SCAN                                       
  Tobias Risthaus        : range-separated hybrid DFT                    
  Lukas Wittmann         : regularized MP2, r2SCAN double-hybrids, wr2SCAN        
                                                                         
We gratefully acknowledge several colleagues who have allowed us to      
interface, adapt or use parts of their codes:                            
  Ed Valeev, F. Pavosevic, A. Kumar             : LibInt (2-el integral package), F12 methods 
  Garnet Chan, S. Sharma, J. Yang, R. Olivares  : DMRG                   
  Ulf Ekstrom                                   : XCFun DFT Library      
  Mihaly Kallay                                 : mrcc  (arbitrary order and MRCC methods)
  Frank Weinhold                                : gennbo (NPA and NBO analysis)           
  Simon Mueller                                 : openCOSMO-RS                            
  Christopher J. Cramer and Donald G. Truhlar   : smd solvation model                     
  S Lehtola, MJT Oliveira, MAL Marques          : LibXC Library                           
  Liviu Ungur et al                             : ANISO software                          


 Your calculation uses the libint2 library for the computation of 2-el integrals
 For citations please refer to: http://libint.valeyev.net

 Your ORCA version has been built with support for libXC version: 6.2.2
 For citations please refer to: https://libxc.gitlab.io

 This ORCA versions uses:
   CBLAS   interface :  Fast vector & matrix operations
   LAPACKE interface :  Fast linear algebra routines
   SCALAPACK package :  Parallel linear algebra routines
   Shared memory     :  Shared parallel matrices
   BLAS/LAPACK       :  OpenBLAS 0.3.27  USE64BITINT DYNAMIC_ARCH NO_AFFINITY SkylakeX SINGLE_THREADED
        Core in use  :  SkylakeX
   Copyright (c) 2011-2014, The OpenBLAS Project


NOTE: MaxCore=5000 MB was set to SCF,MP2,MDCI,CIPSI,MRCI and CIS
      => If you want to overwrite this, your respective input block should be placed after the MaxCore statement
Warning: RI is on but no J-basis has been assigned. Assigning Def2/J (nothing to worry about!)
================================================================================

----- Orbital basis set information -----
Your calculation utilizes the basis: def2-TZVP
   F. Weigend and R. Ahlrichs, Phys. Chem. Chem. Phys. 7, 3297 (2005).

----- AuxJ basis set information -----
Your calculation utilizes the auxiliary basis: def2/J
   F. Weigend, Phys. Chem. Chem. Phys. 8, 1057 (2006).

================================================================================
                                        WARNINGS
                       Please study these warnings very carefully!
================================================================================


WARNING: Geometry Optimization
  ===> : Switching off AutoStart
         For restart on a previous wavefunction, please use MOREAD

================================================================================
                                       INPUT FILE
================================================================================
NAME = honokiol2.inp
|  1> ! OPT B3LYP def2-TZVP TightSCF
|  2> 
|  3> %maxcore 5000
|  4> 
|  5> %pal
|  6> nprocs 20
|  7> end
|  8> 
|  9> * xyz 0 1
| 10> O        1.7973805030      1.1103938364      2.6217837336                 
| 11> O       -3.8308105620     -2.0126190840      2.1723475979                 
| 12> C        1.2523457431     -0.0496923406      0.5324857533                 
| 13> C       -0.0983722173     -0.5580686640      0.9598739660                 
| 14> C       -2.4223663142     -1.1499418186      0.3953460245                 
| 15> C       -1.1543465356     -0.6598460015      0.0279368004                 
| 16> C        2.9585400827      0.0614503351     -1.2376875467                 
| 17> C        1.6947202000     -0.3397740480     -0.7795387388                 
| 18> C        2.1297091742      0.6939115462      1.3800269810                 
| 19> C       -0.3422597157     -0.9868429072      2.2782718657                 
| 20> C       -2.6390562024     -1.5517607597      1.7351356142                 
| 21> C       -3.5076490751     -1.2255994964     -0.6582195511                 
| 22> C        3.4007181551     -0.2790368040     -2.6375487027                 
| 23> C        3.8060845048      0.7657659967     -0.3789254271                 
| 24> C       -1.5937426462     -1.4710904063      2.6562997352                 
| 25> C        3.3917299022      1.0785629398      0.9122582531                 
| 26> C       -3.8787406744     -2.6559622131     -0.9490464891                 
| 27> C        2.4971602872      0.3771223556     -3.6464794568                 
| 28> C       -5.1288611240     -3.1103594617     -0.8210024502                 
| 29> C        1.7866953714     -0.3314764149     -4.5286009313                 
| 30> H       -1.0020622991     -0.3419179340     -0.9946217587                 
| 31> H        1.0732896210     -0.9095929542     -1.4574698279                 
| 32> H        0.4362159454     -0.9822076622      3.0270123478                 
| 33> H       -4.3832231386     -0.6225822946     -0.3326836102                 
| 34> H       -3.1499597374     -0.7921440673     -1.6167930861                 
| 35> H        3.4009552955     -1.3853628150     -2.7519570077                 
| 36> H        4.4358113241      0.0795090924     -2.8243308078                 
| 37> H        4.7870988026      1.0837870200     -0.7096535452                 
| 38> H       -1.7514742829     -1.7913593810      3.6789110345                 
| 39> H        4.0549645510      1.6444786175      1.5550678800                 
| 40> H       -3.1031986118     -3.3374029142     -1.2869756333                 
| 41> H        2.4220319036      1.4607627510     -3.6558983401                 
| 42> H        0.9065071107      1.0976718422      2.9890095952                 
| 43> H       -4.6233985955     -2.0643035090      1.6253365836                 
| 44> H       -5.3540115480     -4.1475295475     -1.0468657285                 
| 45> H       -5.9338337003     -2.4591891965     -0.4944921746                 
| 46> H        1.1455542808      0.1772785302     -5.2410388453                 
| 47> H        1.8352141522     -1.4158253767     -4.5493876119
| 48> *
| 49> 
| 50>                          ****END OF INPUT****
================================================================================

                       *****************************
                       * Geometry Optimization Run *
                       *****************************

Geometry optimization settings:
Update method            Update   .... BFGS
Choice of coordinates    CoordSys .... (2022) Redundant Internals
Initial Hessian          InHess   .... Almloef's Model
Max. no of cycles        MaxIter  .... 114

Convergence Tolerances:
Energy Change            TolE     ....  5.0000e-06 Eh
Max. Gradient            TolMAXG  ....  3.0000e-04 Eh/bohr
RMS Gradient             TolRMSG  ....  1.0000e-04 Eh/bohr
Max. Displacement        TolMAXD  ....  4.0000e-03 bohr
RMS Displacement         TolRMSD  ....  2.0000e-03 bohr
Strict Convergence                .... False

------------------------------------------------------------------------------
                        ORCA OPTIMIZATION COORDINATE SETUP
------------------------------------------------------------------------------

The optimization will be done in redundant internal coordinates (2022)
Making redundant internal coordinates   ...  (2022 redundants) done
Evaluating the initial hessian          ...  (Almloef) done
Evaluating the coordinates              ...  done
Calculating the B-matrix                .... done
Calculating the G-matrix                .... done
Diagonalizing the G-matrix              .... done
Small eigenvalue found = 2.253e-03
Small eigenvalue found = 8.837e-03
Small eigenvalue found = 1.427e-02
Small eigenvalue found = 1.871e-02
Small eigenvalue found = 2.228e-02
Small eigenvalue found = 2.619e-02
The first mode is                       ....   77
The number of degrees of freedom        ....  108

    -----------------------------------------------------------------
                    Redundant Internal Coordinates


    -----------------------------------------------------------------
         Definition                    Initial Value    Approx d2E/dq
    -----------------------------------------------------------------
      1. B(C   3,C   2)                  1.5052         0.409249   
      2. B(C   5,C   3)                  1.4121         0.576135   
      3. B(C   5,C   4)                  1.4082         0.584365   
      4. B(C   7,C   6)                  1.4029         0.595883   
      5. B(C   7,C   2)                  1.4147         0.570692   
      6. B(C   8,C   2)                  1.4286         0.542095   
      7. B(C   8,O   0)                  1.3512         0.645221   
      8. B(C   9,C   3)                  1.4077         0.585553   
      9. B(C  10,C   4)                  1.4154         0.569066   
     10. B(C  10,O   1)                  1.3505         0.647010   
     11. B(C  11,C   4)                  1.5145         0.395534   
     12. B(C  12,C   6)                  1.5070         0.406504   
     13. B(C  13,C   6)                  1.3971         0.608730   
     14. B(C  14,C  10)                  1.3956         0.612048   
     15. B(C  14,C   9)                  1.3941         0.615379   
     16. B(C  15,C  13)                  1.3916         0.621023   
     17. B(C  15,C   8)                  1.3998         0.602687   
     18. B(C  16,C  11)                  1.5061         0.407912   
     19. B(C  17,C  12)                  1.5050         0.409570   
     20. B(C  18,C  16)                  1.3363         0.761076   
     21. B(C  19,C  17)                  1.3360         0.761769   
     22. B(H  20,C   5)                  1.0816         0.371363   
     23. B(H  21,C   7)                  1.0819         0.371006   
     24. B(H  22,C   9)                  1.0801         0.373411   
     25. B(H  23,C  11)                  1.1119         0.332312   
     26. B(H  24,C  11)                  1.1112         0.333162   
     27. B(H  25,C  12)                  1.1122         0.331866   
     28. B(H  26,C  12)                  1.1112         0.333067   
     29. B(H  27,C  13)                  1.0830         0.369469   
     30. B(H  28,C  14)                  1.0831         0.369295   
     31. B(H  29,C  15)                  1.0832         0.369195   
     32. B(H  30,C  16)                  1.0863         0.365043   
     33. B(H  31,C  17)                  1.0863         0.365052   
     34. B(H  32,O   0)                  0.9637         0.512981   
     35. B(H  33,O   1)                  0.9644         0.511599   
     36. B(H  34,C  18)                  1.0851         0.366649   
     37. B(H  35,C  18)                  1.0856         0.365915   
     38. B(H  36,C  19)                  1.0851         0.366629   
     39. B(H  37,C  19)                  1.0856         0.365924   
     40. A(C   8,O   0,H  32)          124.9936         0.371799   
     41. A(C  10,O   1,H  33)          124.0489         0.371803   
     42. A(C   7,C   2,C   8)          117.7035         0.417517   
     43. A(C   3,C   2,C   7)          118.3403         0.397265   
     44. A(C   3,C   2,C   8)          123.9487         0.393699   
     45. A(C   2,C   3,C   9)          121.6211         0.399064   
     46. A(C   2,C   3,C   5)          120.5325         0.397928   
     47. A(C   5,C   3,C   9)          117.8144         0.424020   
     48. A(C  10,C   4,C  11)          122.3173         0.394698   
     49. A(C   5,C   4,C  11)          118.7611         0.396540   
     50. A(C   5,C   4,C  10)          118.9216         0.422931   
     51. A(C   3,C   5,H  20)          119.8327         0.350378   
     52. A(C   3,C   5,C   4)          121.7534         0.423866   
     53. A(C   4,C   5,H  20)          118.4072         0.351218   
     54. A(C   7,C   6,C  13)          119.3373         0.429564   
     55. A(C   7,C   6,C  12)          120.2030         0.399820   
     56. A(C  12,C   6,C  13)          120.4561         0.401324   
     57. A(C   2,C   7,H  21)          120.6335         0.349760   
     58. A(C   6,C   7,H  21)          117.6100         0.352322   
     59. A(C   2,C   7,C   6)          121.7318         0.424627   
     60. A(O   0,C   8,C   2)          123.6809         0.423992   
     61. A(C   2,C   8,C  15)          119.8978         0.421598   
     62. A(O   0,C   8,C  15)          116.3676         0.432123   
     63. A(C   3,C   9,C  14)          121.0171         0.429054   
     64. A(C  14,C   9,H  22)          117.4200         0.354636   
     65. A(C   3,C   9,H  22)          121.5381         0.351666   
     66. A(O   1,C  10,C   4)          122.5758         0.427906   
     67. A(O   1,C  10,C  14)          117.8400         0.433538   
     68. A(C   4,C  10,C  14)          119.5837         0.426448   
     69. A(C   4,C  11,C  16)          110.9993         0.372508   
     70. A(H  23,C  11,H  24)          107.1280         0.283746   
     71. A(C  16,C  11,H  24)          106.4521         0.324862   
     72. A(C   4,C  11,H  24)          110.4855         0.323222   
     73. A(C  16,C  11,H  23)          112.1846         0.324725   
     74. A(C   4,C  11,H  23)          109.4843         0.323087   
     75. A(C   6,C  12,C  17)          110.3693         0.374531   
     76. A(H  25,C  12,H  26)          107.6651         0.283675   
     77. A(C   6,C  12,H  26)          110.8880         0.324662   
     78. A(C  17,C  12,H  25)          111.3985         0.324870   
     79. A(C   6,C  12,H  25)          108.6842         0.324469   
     80. A(C  17,C  12,H  26)          107.8114         0.325063   
     81. A(C   6,C  13,C  15)          120.1980         0.432764   
     82. A(C  15,C  13,H  27)          119.1458         0.354547   
     83. A(C   6,C  13,H  27)          120.6534         0.353348   
     84. A(C  10,C  14,H  28)          119.8014         0.353645   
     85. A(C   9,C  14,H  28)          119.3034         0.353970   
     86. A(C   9,C  14,C  10)          120.8948         0.432477   
     87. A(C  13,C  15,H  29)          119.0592         0.354502   
     88. A(C   8,C  15,H  29)          119.8198         0.352707   
     89. A(C   8,C  15,C  13)          121.1122         0.431989   
     90. A(C  11,C  16,C  18)          122.3411         0.417776   
     91. A(C  18,C  16,H  30)          118.9728         0.366298   
     92. A(C  11,C  16,H  30)          118.6814         0.329791   
     93. A(C  12,C  17,C  19)          122.0500         0.418146   
     94. A(C  19,C  17,H  31)          119.1160         0.366356   
     95. A(C  12,C  17,H  31)          118.8340         0.330014   
     96. A(H  34,C  18,H  35)          118.8203         0.292401   
     97. A(C  16,C  18,H  35)          121.2329         0.366448   
     98. A(C  16,C  18,H  34)          119.9467         0.366573   
     99. A(H  36,C  19,H  37)          118.8247         0.292399   
    100. A(C  17,C  19,H  37)          121.2397         0.366506   
    101. A(C  17,C  19,H  36)          119.9355         0.366627   
    102. D(C   5,C   3,C   2,C   8)    147.7956         0.011489   
    103. D(C   9,C   3,C   2,C   8)    -34.3086         0.011489   
    104. D(C   9,C   3,C   2,C   7)    144.6734         0.011489   
    105. D(C   5,C   3,C   2,C   7)    -33.2223         0.011489   
    106. D(H  20,C   5,C   4,C  11)      0.7360         0.023478   
    107. D(H  20,C   5,C   3,C   2)     -1.8865         0.022791   
    108. D(H  20,C   5,C   4,C  10)   -179.1410         0.023478   
    109. D(C   3,C   5,C   4,C  10)     -0.0871         0.023478   
    110. D(C   3,C   5,C   4,C  11)    179.7899         0.023478   
    111. D(C   4,C   5,C   3,C   9)      1.0988         0.022791   
    112. D(C   4,C   5,C   3,C   2)    179.0729         0.022791   
    113. D(H  20,C   5,C   3,C   9)   -179.8606         0.022791   
    114. D(C   6,C   7,C   2,C   3)   -177.9003         0.022344   
    115. D(C   6,C   7,C   2,C   8)      1.1459         0.022344   
    116. D(H  21,C   7,C   2,C   3)      0.2477         0.022344   
    117. D(H  21,C   7,C   6,C  13)   -178.1757         0.024460   
    118. D(H  21,C   7,C   6,C  12)      1.1352         0.024460   
    119. D(C   2,C   7,C   6,C  13)      0.0259         0.024460   
    120. D(C   2,C   7,C   6,C  12)    179.3369         0.024460   
    121. D(H  21,C   7,C   2,C   8)    179.2939         0.022344   
    122. D(C  15,C   8,C   2,C   7)     -1.6114         0.020084   
    123. D(C  15,C   8,C   2,C   3)    177.3766         0.020084   
    124. D(O   0,C   8,C   2,C   7)    175.6221         0.020084   
    125. D(C  15,C   8,O   0,H  32)    165.2266         0.030731   
    126. D(O   0,C   8,C   2,C   3)     -5.3898         0.020084   
    127. D(C   2,C   8,O   0,H  32)    -12.0967         0.030731   
    128. D(H  22,C   9,C   3,C   5)    176.8973         0.023578   
    129. D(C  14,C   9,C   3,C   5)     -1.2427         0.023578   
    130. D(H  22,C   9,C   3,C   2)     -1.0535         0.023578   
    131. D(C  14,C   9,C   3,C   2)   -179.1935         0.023578   
    132. D(C   4,C  10,O   1,H  33)     -2.9033         0.030915   
    133. D(C  14,C  10,C   4,C  11)    179.3182         0.022211   
    134. D(C  14,C  10,C   4,C   5)     -0.8094         0.022211   
    135. D(O   1,C  10,C   4,C  11)     -0.9309         0.022211   
    136. D(O   1,C  10,C   4,C   5)    178.9415         0.022211   
    137. D(C  14,C  10,O   1,H  33)    176.8517         0.030915   
    138. D(H  24,C  11,C   4,C   5)     -4.1071         0.011623   
    139. D(H  23,C  11,C   4,C  10)     58.0119         0.011623   
    140. D(H  23,C  11,C   4,C   5)   -121.8607         0.011623   
    141. D(C  16,C  11,C   4,C  10)    -66.3788         0.011623   
    142. D(C  16,C  11,C   4,C   5)    113.7486         0.011623   
    143. D(H  26,C  12,C   6,C   7)   -177.9569         0.012247   
    144. D(H  25,C  12,C   6,C  13)    119.5055         0.012247   
    145. D(H  25,C  12,C   6,C   7)    -59.7976         0.012247   
    146. D(C  17,C  12,C   6,C  13)   -118.0556         0.012247   
    147. D(C  17,C  12,C   6,C   7)     62.6413         0.012247   
    148. D(H  27,C  13,C   6,C  12)      0.5468         0.025586   
    149. D(H  27,C  13,C   6,C   7)    179.8559         0.025586   
    150. D(C  15,C  13,C   6,C  12)    179.9332         0.025586   
    151. D(C  15,C  13,C   6,C   7)     -0.7576         0.025586   
    152. D(H  28,C  14,C  10,C   4)   -179.0991         0.025882   
    153. D(H  28,C  14,C  10,O   1)      1.1382         0.025882   
    154. D(C   9,C  14,C  10,C   4)      0.6743         0.025882   
    155. D(C   9,C  14,C  10,O   1)   -179.0883         0.025882   
    156. D(H  28,C  14,C   9,H  22)      1.9372         0.026181   
    157. D(H  28,C  14,C   9,C   3)   -179.8486         0.026181   
    158. D(C  10,C  14,C   9,H  22)   -177.8374         0.026181   
    159. D(C  10,C  14,C   9,C   3)      0.3768         0.026181   
    160. D(C   8,C  15,C  13,C   6)      0.2745         0.026693   
    161. D(H  29,C  15,C   8,C   2)    179.8472         0.025052   
    162. D(H  29,C  15,C   8,O   0)      2.4165         0.025052   
    163. D(C  13,C  15,C   8,C   2)      0.9376         0.025052   
    164. D(C  13,C  15,C   8,O   0)   -176.4932         0.025052   
    165. D(H  29,C  15,C  13,H  27)      0.7524         0.026693   
    166. D(H  29,C  15,C  13,C   6)   -178.6433         0.026693   
    167. D(C   8,C  15,C  13,H  27)    179.6702         0.026693   
    168. D(H  30,C  16,C  11,H  23)    179.3065         0.012328   
    169. D(H  30,C  16,C  11,C   4)    -57.8486         0.012328   
    170. D(C  18,C  16,C  11,H  24)   -116.7690         0.012328   
    171. D(C  18,C  16,C  11,H  23)      0.1062         0.012328   
    172. D(C  18,C  16,C  11,C   4)    122.9512         0.012328   
    173. D(H  31,C  17,C  12,H  25)   -178.7561         0.012425   
    174. D(H  31,C  17,C  12,C   6)     60.4125         0.012425   
    175. D(C  19,C  17,C  12,H  26)    119.1572         0.012425   
    176. D(C  19,C  17,C  12,H  25)      1.2378         0.012425   
    177. D(C  19,C  17,C  12,C   6)   -119.5937         0.012425   
    178. D(H  35,C  18,C  16,H  30)   -179.4626         0.041427   
    179. D(H  35,C  18,C  16,C  11)     -0.2646         0.041427   
    180. D(H  34,C  18,C  16,H  30)      0.4289         0.041427   
    181. D(H  34,C  18,C  16,C  11)    179.6269         0.041427   
    182. D(H  37,C  19,C  17,H  31)   -179.9614         0.041510   
    183. D(H  37,C  19,C  17,C  12)      0.0448         0.041510   
    184. D(H  36,C  19,C  17,H  31)     -0.0197         0.041510   
    185. D(H  36,C  19,C  17,C  12)    179.9864         0.041510   
    -----------------------------------------------------------------

Number of atoms                         .... 38
Number of degrees of freedom            .... 185


         *************************************************************
         *                GEOMETRY OPTIMIZATION CYCLE   1            *
         *************************************************************
---------------------------------
CARTESIAN COORDINATES (ANGSTROEM)
---------------------------------
  O      1.797381    1.110394    2.621784
  O     -3.830811   -2.012619    2.172348
  C      1.252346   -0.049692    0.532486
  C     -0.098372   -0.558069    0.959874
  C     -2.422366   -1.149942    0.395346
  C     -1.154347   -0.659846    0.027937
  C      2.958540    0.061450   -1.237688
  C      1.694720   -0.339774   -0.779539
  C      2.129709    0.693912    1.380027
  C     -0.342260   -0.986843    2.278272
  C     -2.639056   -1.551761    1.735136
  C     -3.507649   -1.225599   -0.658220
  C      3.400718   -0.279037   -2.637549
  C      3.806085    0.765766   -0.378925
  C     -1.593743   -1.471090    2.656300
  C      3.391730    1.078563    0.912258
  C     -3.878741   -2.655962   -0.949046
  C      2.497160    0.377122   -3.646479
  C     -5.128861   -3.110359   -0.821002
  C      1.786695   -0.331476   -4.528601
  H     -1.002062   -0.341918   -0.994622
  H      1.073290   -0.909593   -1.457470
  H      0.436216   -0.982208    3.027012
  H     -4.383223   -0.622582   -0.332684
  H     -3.149960   -0.792144   -1.616793
  H      3.400955   -1.385363   -2.751957
  H      4.435811    0.079509   -2.824331
  H      4.787099    1.083787   -0.709654
  H     -1.751474   -1.791359    3.678911
  H      4.054965    1.644479    1.555068
  H     -3.103199   -3.337403   -1.286976
  H      2.422032    1.460763   -3.655898
  H      0.906507    1.097672    2.989010
  H     -4.623399   -2.064304    1.625337
  H     -5.354012   -4.147530   -1.046866
  H     -5.933834   -2.459189   -0.494492
  H      1.145554    0.177279   -5.241039
  H      1.835214   -1.415825   -4.549388

----------------------------
CARTESIAN COORDINATES (A.U.)
----------------------------
  NO LB      ZA    FRAG     MASS         X           Y           Z
   0 O     8.0000    0    15.999    3.396557    2.098340    4.954453
   1 O     8.0000    0    15.999   -7.239183   -3.803299    4.105142
   2 C     6.0000    0    12.011    2.366590   -0.093905    1.006252
   3 C     6.0000    0    12.011   -0.185897   -1.054597    1.813899
   4 C     6.0000    0    12.011   -4.577609   -2.173075    0.747096
   5 C     6.0000    0    12.011   -2.181399   -1.246928    0.052793
   6 C     6.0000    0    12.011    5.590831    0.116124   -2.338891
   7 C     6.0000    0    12.011    3.202557   -0.642080   -1.473115
   8 C     6.0000    0    12.011    4.024567    1.311303    2.607873
   9 C     6.0000    0    12.011   -0.646777   -1.864863    4.305310
  10 C     6.0000    0    12.011   -4.987093   -2.932403    3.278931
  11 C     6.0000    0    12.011   -6.628496   -2.316047   -1.243855
  12 C     6.0000    0    12.011    6.426426   -0.527303   -4.984245
  13 C     6.0000    0    12.011    7.192457    1.447088   -0.716065
  14 C     6.0000    0    12.011   -3.011737   -2.779958    5.019679
  15 C     6.0000    0    12.011    6.409441    2.038189    1.723918
  16 C     6.0000    0    12.011   -7.329758   -5.019041   -1.793438
  17 C     6.0000    0    12.011    4.718949    0.712658   -6.890848
  18 C     6.0000    0    12.011   -9.692143   -5.877728   -1.551470
  19 C     6.0000    0    12.011    3.376365   -0.626400   -8.557816
  20 H     1.0000    0     1.008   -1.893623   -0.646131   -1.879563
  21 H     1.0000    0     1.008    2.028223   -1.718882   -2.754219
  22 H     1.0000    0     1.008    0.824329   -1.856103    5.720224
  23 H     1.0000    0     1.008   -8.283091   -1.176510   -0.628681
  24 H     1.0000    0     1.008   -5.952561   -1.496935   -3.055296
  25 H     1.0000    0     1.008    6.426874   -2.617956   -5.200445
  26 H     1.0000    0     1.008    8.382469    0.150250   -5.337212
  27 H     1.0000    0     1.008    9.046306    2.048061   -1.341051
  28 H     1.0000    0     1.008   -3.309807   -3.385179    6.952134
  29 H     1.0000    0     1.008    7.662772    3.107614    2.938652
  30 H     1.0000    0     1.008   -5.864196   -6.306778   -2.432031
  31 H     1.0000    0     1.008    4.576977    2.760442   -6.908647
  32 H     1.0000    0     1.008    1.713050    2.074299    5.648410
  33 H     1.0000    0     1.008   -8.736957   -3.900968    3.071441
  34 H     1.0000    0     1.008  -10.117616   -7.837695   -1.978290
  35 H     1.0000    0     1.008  -11.213321   -4.647194   -0.934455
  36 H     1.0000    0     1.008    2.164784    0.335008   -9.904128
  37 H     1.0000    0     1.008    3.468052   -2.675522   -8.597097

--------------------------------
INTERNAL COORDINATES (ANGSTROEM)
--------------------------------
 O      0   0   0     0.000000000000     0.00000000     0.00000000
 O      1   0   0     6.452266051954     0.00000000     0.00000000
 C      1   2   0     2.451128082751    61.15684558     0.00000000
 C      3   1   2     1.505173139242    96.74011751     0.53289597
 C      2   1   3     2.426038304575    51.13426931   337.40351911
 C      5   2   1     1.408210782097   146.88945549    15.36744203
 C      3   1   2     2.461090272801   115.94821284   180.78269462
 C      7   3   1     1.402897726736    29.26738416   182.96367558
 C      1   2   3     1.351243751652    90.07649001   357.56128041
 C      4   3   1     1.407658156457   121.62109673   323.20457355
 C      2   1   3     1.350489973081    24.16422060   358.03917908
 C      5   2   1     1.514451444387    94.34501872   196.27467786
 C      7   3   1     1.507005041691   149.46716383   181.83556649
 C      7   3   1     1.397091434613    90.06994150     2.98629374
 C     10   4   3     1.394134224469   121.01707119   180.80645528
 C     14   7   3     1.391649007589   120.19800430   359.25509444
 C     12   5   2     1.506063340057   110.99933908   293.18331244
 C     13   7   3     1.504959444616   110.36929768    63.27938748
 C     17  12   5     1.336290864274   122.34105489   122.95115659
 C     18  13   7     1.336043004514   122.05002676   240.40632683
 H      6   5   2     1.081616730445   118.40717439   181.76798292
 H      8   7   3     1.081878048556   117.60997164   181.79832465
 H     10   4   3     1.080119507257   121.53813657   358.94653433
 H     12   5   2     1.111860303796   109.48432012    57.57403023
 H     12   5   2     1.111165376226   110.48548586   175.32758392
 H     13   7   3     1.112225947865   108.68416841   300.84047295
 H     13   7   3     1.111242810155   110.88804253   182.68122435
 H     14   7   3     1.083008546527   120.65335294   179.86862708
 H     15  10   4     1.083136812608   119.30336438   180.15140580
 H     16  14   7     1.083210492042   119.05920472   181.35674162
 H     17  12   5     1.086288647864   118.68140049   302.15138016
 H     18  13   7     1.086282419966   118.83400936    60.41247072
 H      1   2   3     0.963676337612    38.16548413   155.43689876
 H      2   1   3     0.964410763316   141.47352815   305.15775880
 H     19  17  12     1.085093876487   119.94669525   179.62686660
 H     19  17  12     1.085639223199   121.23293559   359.73537947
 H     20  18  13     1.085108876346   119.93548591   179.98643187
 H     20  18  13     1.085632916384   121.23974193     0.04476937

---------------------------
INTERNAL COORDINATES (A.U.)
---------------------------
 O      0   0   0     0.000000000000     0.00000000     0.00000000
 O      1   0   0    12.193015781391     0.00000000     0.00000000
 C      1   2   0     4.631960795563    61.15684558     0.00000000
 C      3   1   2     2.844365017302    96.74011751     0.53289597
 C      2   1   3     4.584547986049    51.13426931   337.40351911
 C      5   2   1     2.661132716998   146.88945549    15.36744203
 C      3   1   2     4.650786606452   115.94821284   180.78269462
 C      7   3   1     2.651092497432    29.26738416   182.96367558
 C      1   2   3     2.553480630795    90.07649001   357.56128041
 C      4   3   1     2.660088405885   121.62109673   323.20457355
 C      2   1   3     2.552056195730    24.16422060   358.03917908
 C      5   2   1     2.861898473013    94.34501872   196.27467786
 C      7   3   1     2.847826811234   149.46716383   181.83556649
 C      7   3   1     2.640120195465    90.06994150     2.98629374
 C     10   4   3     2.634531878173   121.01707119   180.80645528
 C     14   7   3     2.629835498886   120.19800430   359.25509444
 C     12   5   2     2.846047253046   110.99933908   293.18331244
 C     13   7   3     2.843961192983   110.36929768    63.27938748
 C     17  12   5     2.525223768738   122.34105489   122.95115659
 C     18  13   7     2.524755381673   122.05002676   240.40632683
 H      6   5   2     2.043959402409   118.40717439   181.76798292
 H      8   7   3     2.044453222072   117.60997164   181.79832465
 H     10   4   3     2.041130060621   121.53813657   358.94653433
 H     12   5   2     2.101111473354   109.48432012    57.57403023
 H     12   5   2     2.099798250562   110.48548586   175.32758392
 H     13   7   3     2.101802440505   108.68416841   300.84047295
 H     13   7   3     2.099944579482   110.88804253   182.68122435
 H     14   7   3     2.046589553632   120.65335294   179.86862708
 H     15  10   4     2.046831941398   119.30336438   180.15140580
 H     16  14   7     2.046971175350   119.05920472   181.35674162
 H     17  12   5     2.052788046850   118.68140049   302.15138016
 H     18  13   7     2.052776277829   118.83400936    60.41247072
 H      1   2   3     1.821084359826    38.16548413   155.43689876
 H      2   1   3     1.822472223274   141.47352815   305.15775880
 H     19  17  12     2.050530256156   119.94669525   179.62686660
 H     19  17  12     2.051560812089   121.23293559   359.73537947
 H     20  18  13     2.050558601780   119.93548591   179.98643187
 H     20  18  13     2.051548893937   121.23974193     0.04476937

---------------------
BASIS SET INFORMATION
---------------------
There are 3 groups of distinct atoms

 Group   1 Type O   : 11s6p2d1f contracted to 5s3p2d1f pattern {62111/411/11/1}
 Group   2 Type C   : 11s6p2d1f contracted to 5s3p2d1f pattern {62111/411/11/1}
 Group   3 Type H   : 5s1p contracted to 3s1p pattern {311/1}

Atom   0O    basis set group =>   1
Atom   1O    basis set group =>   1
Atom   2C    basis set group =>   2
Atom   3C    basis set group =>   2
Atom   4C    basis set group =>   2
Atom   5C    basis set group =>   2
Atom   6C    basis set group =>   2
Atom   7C    basis set group =>   2
Atom   8C    basis set group =>   2
Atom   9C    basis set group =>   2
Atom  10C    basis set group =>   2
Atom  11C    basis set group =>   2
Atom  12C    basis set group =>   2
Atom  13C    basis set group =>   2
Atom  14C    basis set group =>   2
Atom  15C    basis set group =>   2
Atom  16C    basis set group =>   2
Atom  17C    basis set group =>   2
Atom  18C    basis set group =>   2
Atom  19C    basis set group =>   2
Atom  20H    basis set group =>   3
Atom  21H    basis set group =>   3
Atom  22H    basis set group =>   3
Atom  23H    basis set group =>   3
Atom  24H    basis set group =>   3
Atom  25H    basis set group =>   3
Atom  26H    basis set group =>   3
Atom  27H    basis set group =>   3
Atom  28H    basis set group =>   3
Atom  29H    basis set group =>   3
Atom  30H    basis set group =>   3
Atom  31H    basis set group =>   3
Atom  32H    basis set group =>   3
Atom  33H    basis set group =>   3
Atom  34H    basis set group =>   3
Atom  35H    basis set group =>   3
Atom  36H    basis set group =>   3
Atom  37H    basis set group =>   3
---------------------------------
AUXILIARY/J BASIS SET INFORMATION
---------------------------------
There are 3 groups of distinct atoms

 Group   1 Type O   : 12s5p4d2f1g contracted to 6s4p3d1f1g pattern {711111/2111/211/2/1}
 Group   2 Type C   : 12s5p4d2f1g contracted to 6s4p3d1f1g pattern {711111/2111/211/2/1}
 Group   3 Type H   : 5s2p1d contracted to 3s1p1d pattern {311/2/1}

Atom   0O    basis set group =>   1
Atom   1O    basis set group =>   1
Atom   2C    basis set group =>   2
Atom   3C    basis set group =>   2
Atom   4C    basis set group =>   2
Atom   5C    basis set group =>   2
Atom   6C    basis set group =>   2
Atom   7C    basis set group =>   2
Atom   8C    basis set group =>   2
Atom   9C    basis set group =>   2
Atom  10C    basis set group =>   2
Atom  11C    basis set group =>   2
Atom  12C    basis set group =>   2
Atom  13C    basis set group =>   2
Atom  14C    basis set group =>   2
Atom  15C    basis set group =>   2
Atom  16C    basis set group =>   2
Atom  17C    basis set group =>   2
Atom  18C    basis set group =>   2
Atom  19C    basis set group =>   2
Atom  20H    basis set group =>   3
Atom  21H    basis set group =>   3
Atom  22H    basis set group =>   3
Atom  23H    basis set group =>   3
Atom  24H    basis set group =>   3
Atom  25H    basis set group =>   3
Atom  26H    basis set group =>   3
Atom  27H    basis set group =>   3
Atom  28H    basis set group =>   3
Atom  29H    basis set group =>   3
Atom  30H    basis set group =>   3
Atom  31H    basis set group =>   3
Atom  32H    basis set group =>   3
Atom  33H    basis set group =>   3
Atom  34H    basis set group =>   3
Atom  35H    basis set group =>   3
Atom  36H    basis set group =>   3
Atom  37H    basis set group =>   3


           ************************************************************
           *        Program running with 20 parallel MPI-processes    *
           *              working on a common directory               *
           ************************************************************
------------------------------------------------------------------------------
                             ORCA STARTUP CALCULATIONS
                           -- RI-GTO INTEGRALS CHOSEN --
------------------------------------------------------------------------------
------------------------------------------------------------------------------
                   ___                                                        
                  /   \      - P O W E R E D   B Y -                         
                 /     \                                                     
                 |  |  |   _    _      __       _____    __    __             
                 |  |  |  | |  | |    /  \     |  _  \  |  |  /  |          
                  \  \/   | |  | |   /    \    | | | |  |  | /  /          
                 / \  \   | |__| |  /  /\  \   | |_| |  |  |/  /          
                |  |  |   |  __  | /  /__\  \  |    /   |      \           
                |  |  |   | |  | | |   __   |  |    \   |  |\   \          
                \     /   | |  | | |  |  |  |  | |\  \  |  | \   \       
                 \___/    |_|  |_| |__|  |__|  |_| \__\ |__|  \__/        
                                                                              
                      - O R C A' S   B I G   F R I E N D -                    
                                      &                                       
                       - I N T E G R A L  F E E D E R -                       
                                                                              
 v1 FN, 2020, v2 2021, v3 2022-2024                                           
------------------------------------------------------------------------------


----------------------
SHARK INTEGRAL PACKAGE
----------------------

Number of atoms                             ...     38
Number of basis functions                   ...    728
Number of shells                            ...    292
Maximum angular momentum                    ...      3
Integral batch strategy                     ... SHARK/LIBINT Hybrid
RI-J (if used) integral strategy            ... SPLIT-RIJ (Revised 2003 algorithm where possible)
Printlevel                                  ...      1
Contraction scheme used                     ... SEGMENTED contraction
Prescreening option                         ... SCHWARTZ
   Thresh                                   ... 2.500e-11
   Tcut                                     ... 2.500e-12
   Tpresel                                  ... 2.500e-12 
Coulomb Range Separation                    ... NOT USED
Exchange Range Separation                   ... NOT USED
Multipole approximations                    ... NOT USED
Finite Nucleus Model                        ... NOT USED
CABS basis                                  ... NOT available
Auxiliary Coulomb fitting basis             ... AVAILABLE
   # of basis functions in Aux-J            ...   1178
   # of shells in Aux-J                     ...    390
   Maximum angular momentum in Aux-J        ...      4
Auxiliary J/K fitting basis                 ... NOT available
Auxiliary Correlation fitting basis         ... NOT available
Auxiliary 'external' fitting basis          ... NOT available

Checking pre-screening integrals            ... done (  0.0 sec) Dimension = 292
Check shell pair data                       ... done (  0.0 sec)
Shell pair information
Shell pair cut-off parameter TPreSel        ...   2.5e-12
Total number of shell pairs                 ...     42778
Shell pairs after pre-screening             ...     29693
Total number of primitive shell pairs       ...    129780
Primitive shell pairs kept                  ...     60800
          la=0 lb=0:   8031 shell pairs
          la=1 lb=0:   8677 shell pairs
          la=1 lb=1:   2360 shell pairs
          la=2 lb=0:   4151 shell pairs
          la=2 lb=1:   2254 shell pairs
          la=2 lb=2:    564 shell pairs
          la=3 lb=0:   1944 shell pairs
          la=3 lb=1:   1078 shell pairs
          la=3 lb=2:    503 shell pairs
          la=3 lb=3:    131 shell pairs

Calculating one electron integrals          ... done (  0.0 sec)
Calculating RI/J V-Matrix + Cholesky decomp.... done (  0.1 sec)
Calculating Nuclear repulsion               ... done (  0.0 sec) ENN=   1413.498979105772 Eh

Diagonalization of the overlap matrix:
Smallest eigenvalue                        ... 7.185e-06
Time for diagonalization                   ...    0.062 sec
Threshold for overlap eigenvalues          ... 1.000e-07
Number of eigenvalues below threshold      ... 0
Time for construction of square roots      ...    0.029 sec
Total time needed                          ...    0.095 sec

-------------------
DFT GRID GENERATION
-------------------

General Integration Accuracy     IntAcc      ... 4.388
Radial Grid Type                 RadialGrid  ... OptM3 with GC (2021)
Angular Grid (max. ang.)         AngularGrid ... 4 (Lebedev-302)
Angular grid pruning method      GridPruning ... 4 (adaptive)
Weight generation scheme         WeightScheme... mBecke (2022)
Basis function cutoff            BFCut       ... 1.0000e-11
Integration weight cutoff        WCut        ... 1.0000e-14
Partially contracted basis set               ... off
Rotationally invariant grid construction     ... off
Angular grids for H and He will be reduced by one unit

Total number of grid points                  ...   177161
Total number of batches                      ...     2787
Average number of points per batch           ...       63
Average number of grid points per atom       ...     4662

--------------------
COSX GRID GENERATION
--------------------

GRIDX 1
-------
General Integration Accuracy     IntAcc      ... 3.816
Radial Grid Type                 RadialGrid  ... OptM3 with GC (2021)
Angular Grid (max. ang.)         AngularGrid ... 1 (Lebedev-50)
Angular grid pruning method      GridPruning ... 4 (adaptive)
Weight generation scheme         WeightScheme... mBecke (2022)
Basis function cutoff            BFCut       ... 1.0000e-11
Integration weight cutoff        WCut        ... 1.0000e-14
Partially contracted basis set               ... on
Rotationally invariant grid construction     ... off
Angular grids for H and He will be reduced by one unit

Total number of grid points                  ...    22447
Total number of batches                      ...      198
Average number of points per batch           ...      113
Average number of grid points per atom       ...      591
UseSFitting                                  ... on

GRIDX 2
-------
General Integration Accuracy     IntAcc      ... 4.020
Radial Grid Type                 RadialGrid  ... OptM3 with GC (2021)
Angular Grid (max. ang.)         AngularGrid ... 2 (Lebedev-110)
Angular grid pruning method      GridPruning ... 4 (adaptive)
Weight generation scheme         WeightScheme... mBecke (2022)
Basis function cutoff            BFCut       ... 1.0000e-11
Integration weight cutoff        WCut        ... 1.0000e-14
Partially contracted basis set               ... on
Rotationally invariant grid construction     ... off
Angular grids for H and He will be reduced by one unit

Total number of grid points                  ...    48509
Total number of batches                      ...      397
Average number of points per batch           ...      122
Average number of grid points per atom       ...     1277
UseSFitting                                  ... on

GRIDX 3
-------
General Integration Accuracy     IntAcc      ... 4.338
Radial Grid Type                 RadialGrid  ... OptM3 with GC (2021)
Angular Grid (max. ang.)         AngularGrid ... 3 (Lebedev-194)
Angular grid pruning method      GridPruning ... 4 (adaptive)
Weight generation scheme         WeightScheme... mBecke (2022)
Basis function cutoff            BFCut       ... 1.0000e-11
Integration weight cutoff        WCut        ... 1.0000e-14
Partially contracted basis set               ... on
Rotationally invariant grid construction     ... off
Angular grids for H and He will be reduced by one unit

Total number of grid points                  ...   106137
Total number of batches                      ...      848
Average number of points per batch           ...      125
Average number of grid points per atom       ...     2793
UseSFitting                                  ... on
Initializing property integral containers    ... done (  0.0 sec)

SHARK setup successfully completed in   2.1 seconds

Maximum memory used throughout the entire STARTUP-calculation: 70.6 MB


           ************************************************************
           *        Program running with 20 parallel MPI-processes    *
           *              working on a common directory               *
           ************************************************************
-------------------------------------------------------------------------------
                                 ORCA GUESS
                   Start orbitals & Density for SCF / CASSCF
-------------------------------------------------------------------------------

------------
SCF SETTINGS
------------
Hamiltonian:
 Density Functional     Method          .... DFT(GTOs)
 Exchange Functional    Exchange        .... B88
   X-Alpha parameter    XAlpha          ....  0.666667
   Becke's b parameter  XBeta           ....  0.004200
 Correlation Functional Correlation     .... LYP
 LDA part of GGA corr.  LDAOpt          .... VWN-5
 Gradients option       PostSCFGGA      .... off
 Hybrid DFT is turned on
   Fraction HF Exchange ScalHFX         ....  0.200000
   Scaling of DF-GGA-X  ScalDFX         ....  0.720000
   Scaling of DF-GGA-C  ScalDFC         ....  0.810000
   Scaling of DF-LDA-C  ScalLDAC        ....  1.000000
   Perturbative correction              ....  0.000000
   NL short-range parameter             ....  4.800000
 RI-approximation to the Coulomb term is turned on
   Number of AuxJ basis functions       .... 1178
   RIJ-COSX (HFX calculated with COS-X)).... on


General Settings:
 Integral files         IntName         .... honokiol2
 Hartree-Fock type      HFTyp           .... RHF
 Total Charge           Charge          ....    0
 Multiplicity           Mult            ....    1
 Number of Electrons    NEL             ....  142
 Basis Dimension        Dim             ....  728
 Nuclear Repulsion      ENuc            ....   1413.4989791058 Eh

Convergence Acceleration:
 AO-DIIS                CNVDIIS         .... on
   Start iteration      DIISMaxIt       ....    12
   Startup error        DIISStart       ....  0.200000
   # of expansion vecs  DIISMaxEq       ....     5
   Bias factor          DIISBfac        ....   1.050
   Max. coefficient     DIISMaxC        ....  10.000
 MO-DIIS                CNVKDIIS        .... off
 Trust-Rad. Augm. Hess. CNVTRAH         .... auto
   Auto Start mean grad. ratio tolernc. ....  1.125000
   Auto Start start iteration           ....    50
   Auto Start num. interpolation iter.  ....    10
   Max. Number of Micro iterations      ....    24
   Max. Number of Macro iterations      .... Maxiter - #DIIS iter
   Number of Davidson start vectors     ....     2
   Converg. threshold    (grad. norm)   ....   1.000e-05
   Grad. Scal. Fac. for Micro threshold ....   0.100
   Minimum threshold for Micro iter.    ....   1.000e-02
   NR start threshold (gradient norm)   ....   1.000e-04
   Initial trust radius                 ....   0.400
   Minimum AH scaling param. (alpha)    ....   1.000
   Maximum AH scaling param. (alpha)    .... 1000.000
   Quad. conv. algorithm                .... NR
   White noise on init. David. guess    .... on
   Maximum white noise                  ....   0.010
   Pseudo random numbers                .... off
   Inactive MOs                         .... canonical
   Orbital update algorithm             .... Taylor
   Preconditioner                       .... Diag
   Full preconditioner red. dimension   ....   250
 SOSCF                  CNVSOSCF        .... on
   Start iteration      SOSCFMaxIt      ....   150
   Startup grad/error   SOSCFStart      ....  0.003300
   Hessian update       SOSCFHessUp     .... L-BFGS
 Level Shifting         CNVShift        .... on
   Level shift para.    LevelShift      ....    0.2500
   Turn off err/grad.   ShiftErr        ....    0.0010
 Zerner damping         CNVZerner       .... off
 Static damping         CNVDamp         .... on
   Fraction old density DampFac         ....    0.7000
   Max. Damping (<1)    DampMax         ....    0.9800
   Min. Damping (>=0)   DampMin         ....    0.0000
   Turn off err/grad.   DampErr         ....    0.1000

SCF Procedure:
 Maximum # iterations   MaxIter         ....   125
 SCF integral mode      SCFMode         .... Direct
   Integral package                     .... SHARK and LIBINT hybrid scheme
 Reset frequency        DirectResetFreq ....    20
 Integral Threshold     Thresh          ....  2.500e-11 Eh
 Primitive CutOff       TCut            ....  2.500e-12 Eh

Convergence Tolerance:
 Convergence Check Mode ConvCheckMode   .... Total+1el-Energy
 Convergence forced     ConvForced      .... 0
 Energy Change          TolE            ....  1.000e-08 Eh
 1-El. energy change                    ....  1.000e-05 Eh
 Orbital Gradient       TolG            ....  1.000e-05
 Orbital Rotation angle TolX            ....  1.000e-05
 DIIS Error             TolErr          ....  5.000e-07

------------------------------
INITIAL GUESS: MODEL POTENTIAL
------------------------------
Loading Hartree-Fock densities                     ... done
Calculating cut-offs                               ... done
Initializing the effective Hamiltonian             ... done
Setting up the integral package (SHARK)            ... done
Starting the Coulomb interaction                   ... done (   0.1 sec)
Making the grid                                    ... done (   0.2 sec)
Mapping shells                                     ... done
Starting the XC term evaluation                    ... done (   0.1 sec)
  promolecular density results
     # of electrons  =    141.998168479
     EX              =   -114.270564092
     EC              =     -4.771264599
     EX+EC           =   -119.041828692
Transforming the Hamiltonian                       ... done (   0.0 sec)
Diagonalizing the Hamiltonian                      ... done (   0.1 sec)
Back transforming the eigenvectors                 ... done (   0.0 sec)
Now organizing SCF variables                       ... done
                      ------------------
                      INITIAL GUESS DONE (   0.6 sec)
                      ------------------
             **** ENERGY FILE WAS UPDATED (honokiol2.en.tmp) ****
Finished Guess after   1.2 sec
Maximum memory used throughout the entire GUESS-calculation: 54.7 MB


           ************************************************************
           *        Program running with 20 parallel MPI-processes    *
           *              working on a common directory               *
           ************************************************************

-------------------------------------------------------------------------------------------
                                      ORCA LEAN-SCF
                              memory conserving SCF solver
-------------------------------------------------------------------------------------------

----------------------------------------D-I-I-S--------------------------------------------
Iteration    Energy (Eh)           Delta-E    RMSDP     MaxDP     DIISErr   Damp  Time(sec)
-------------------------------------------------------------------------------------------
               ***  Starting incremental Fock matrix formation  ***
    1    -846.3973437082490818     0.00e+00  1.53e-03  1.20e-01  2.43e-01  0.700   3.5
    2    -846.6460556472889039    -2.49e-01  1.37e-03  1.28e-01  1.09e-01  0.700   2.1
                               ***Turning on AO-DIIS***
    3    -846.7527079224537374    -1.07e-01  5.19e-04  3.29e-02  3.78e-02  0.700   2.0
    4    -846.8142564716135894    -6.15e-02  7.64e-04  4.32e-02  2.21e-02  0.000   1.9
    5    -846.9465200068411832    -1.32e-01  3.13e-04  2.94e-02  5.12e-03  0.000   2.0
                              *** Initializing SOSCF ***
---------------------------------------S-O-S-C-F--------------------------------------
Iteration    Energy (Eh)           Delta-E    RMSDP     MaxDP     MaxGrad    Time(sec)
--------------------------------------------------------------------------------------
    6    -846.9471814573726078    -6.61e-04  1.11e-04  8.97e-03  1.42e-03     1.9
               *** Restarting incremental Fock matrix formation ***
    7    -846.9472478483044142    -6.64e-05  1.02e-04  6.18e-03  2.28e-04     3.4
    8    -846.9472399729852441     7.88e-06  1.82e-05  1.07e-03  5.02e-04     2.5
    9    -846.9472540879787630    -1.41e-05  1.64e-05  1.31e-03  4.56e-05     2.3
   10    -846.9472539195239733     1.68e-07  5.46e-06  6.85e-04  7.46e-05     2.2
   11    -846.9472543113315623    -3.92e-07  4.07e-06  3.17e-04  1.98e-05     1.9
   12    -846.9472542876301304     2.37e-08  1.41e-06  5.49e-05  2.35e-05     1.8
   13    -846.9472543144429437    -2.68e-08  1.40e-06  9.24e-05  2.91e-06     1.7
   14    -846.9472543243382461    -9.90e-09  8.29e-07  6.59e-05  4.56e-06     1.7
                 **** Energy Check signals convergence ****

               *****************************************************
               *                     SUCCESS                       *
               *           SCF CONVERGED AFTER  14 CYCLES          *
               *****************************************************

Recomputing exchange energy using gridx3       ... done (    5.396 sec)
Old exchange energy                            :    -23.233641872 Eh
New exchange energy                            :    -23.233668102 Eh
Exchange energy change after final integration :     -0.000026230 Eh
Total energy after final integration           :   -846.947280554 Eh
             **** ENERGY FILE WAS UPDATED (honokiol2.en.tmp) ****

----------------
TOTAL SCF ENERGY
----------------

Total Energy       :       -846.94728055413964 Eh          -23046.60717 eV

Components:
Nuclear Repulsion  :       1413.49897910577192 Eh           38463.26266 eV
Electronic Energy  :      -2260.44623343010971 Eh          -61509.86911 eV
One Electron Energy:      -3955.19524175898323 Eh         -107626.33415 eV
Two Electron Energy:       1694.74900832887329 Eh           46116.46503 eV

Virial components:
Potential Energy   :      -1689.65541750686225 Eh          -45977.86138 eV
Kinetic Energy     :        842.70813695272250 Eh           22931.25421 eV
Virial Ratio       :          2.00503038171287

DFT components:
N(Alpha)           :       70.999996401380 electrons
N(Beta)            :       70.999996401380 electrons
N(Total)           :      141.999992802761 electrons
E(X)               :      -92.307121481538 Eh       
E(C)               :       -5.635135926734 Eh       
E(XC)              :      -97.942257408272 Eh       

---------------
SCF CONVERGENCE
---------------

  Last Energy change         ...    9.8953e-09  Tolerance :   1.0000e-08
  Last MAX-Density change    ...    6.5886e-05  Tolerance :   1.0000e-07
  Last RMS-Density change    ...    8.2895e-07  Tolerance :   5.0000e-09
  Last DIIS Error            ...    1.4171e-03  Tolerance :   5.0000e-07
  Last Orbital Gradient      ...    4.5591e-06  Tolerance :   1.0000e-05
  Last Orbital Rotation      ...    8.8454e-06  Tolerance :   1.0000e-05


----------------
ORBITAL ENERGIES
----------------

  NO   OCC          E(Eh)            E(eV) 
   0   2.0000     -19.155213      -521.2398 
   1   2.0000     -19.147106      -521.0192 
   2   2.0000     -10.242484      -278.7122 
   3   2.0000     -10.236674      -278.5541 
   4   2.0000     -10.194363      -277.4027 
   5   2.0000     -10.189873      -277.2806 
   6   2.0000     -10.188503      -277.2433 
   7   2.0000     -10.186983      -277.2019 
   8   2.0000     -10.185185      -277.1530 
   9   2.0000     -10.178711      -276.9768 
  10   2.0000     -10.178528      -276.9718 
  11   2.0000     -10.175639      -276.8932 
  12   2.0000     -10.175421      -276.8873 
  13   2.0000     -10.173998      -276.8486 
  14   2.0000     -10.173849      -276.8445 
  15   2.0000     -10.171233      -276.7733 
  16   2.0000     -10.169133      -276.7162 
  17   2.0000     -10.167346      -276.6675 
  18   2.0000     -10.164745      -276.5968 
  19   2.0000     -10.159775      -276.4615 
  20   2.0000      -1.063039       -28.9268 
  21   2.0000      -1.055297       -28.7161 
  22   2.0000      -0.864536       -23.5252 
  23   2.0000      -0.848315       -23.0838 
  24   2.0000      -0.814983       -22.1768 
  25   2.0000      -0.797402       -21.6984 
  26   2.0000      -0.770820       -20.9751 
  27   2.0000      -0.757785       -20.6204 
  28   2.0000      -0.741729       -20.1835 
  29   2.0000      -0.720901       -19.6167 
  30   2.0000      -0.690274       -18.7833 
  31   2.0000      -0.676387       -18.4054 
  32   2.0000      -0.638550       -17.3758 
  33   2.0000      -0.617654       -16.8072 
  34   2.0000      -0.598033       -16.2733 
  35   2.0000      -0.593482       -16.1495 
  36   2.0000      -0.571940       -15.5633 
  37   2.0000      -0.559680       -15.2297 
  38   2.0000      -0.554502       -15.0888 
  39   2.0000      -0.540497       -14.7077 
  40   2.0000      -0.496170       -13.5015 
  41   2.0000      -0.486391       -13.2354 
  42   2.0000      -0.480776       -13.0826 
  43   2.0000      -0.469657       -12.7800 
  44   2.0000      -0.456931       -12.4337 
  45   2.0000      -0.448543       -12.2055 
  46   2.0000      -0.445415       -12.1204 
  47   2.0000      -0.434146       -11.8137 
  48   2.0000      -0.429997       -11.7008 
  49   2.0000      -0.429149       -11.6777 
  50   2.0000      -0.418544       -11.3892 
  51   2.0000      -0.413368       -11.2483 
  52   2.0000      -0.407322       -11.0838 
  53   2.0000      -0.400058       -10.8861 
  54   2.0000      -0.392825       -10.6893 
  55   2.0000      -0.387664       -10.5489 
  56   2.0000      -0.374021       -10.1776 
  57   2.0000      -0.364880        -9.9289 
  58   2.0000      -0.363258        -9.8848 
  59   2.0000      -0.355428        -9.6717 
  60   2.0000      -0.346788        -9.4366 
  61   2.0000      -0.341719        -9.2986 
  62   2.0000      -0.339687        -9.2434 
  63   2.0000      -0.328152        -8.9295 
  64   2.0000      -0.318529        -8.6676 
  65   2.0000      -0.276550        -7.5253 
  66   2.0000      -0.264480        -7.1969 
  67   2.0000      -0.261065        -7.1039 
  68   2.0000      -0.254500        -6.9253 
  69   2.0000      -0.224978        -6.1220 
  70   2.0000      -0.204909        -5.5759 
  71   0.0000      -0.032629        -0.8879 
  72   0.0000      -0.027195        -0.7400 
  73   0.0000      -0.004792        -0.1304 
  74   0.0000      -0.002556        -0.0696 
  75   0.0000       0.006606         0.1798 
  76   0.0000       0.023081         0.6281 
  77   0.0000       0.030792         0.8379 
  78   0.0000       0.040661         1.1064 
  79   0.0000       0.047183         1.2839 
  80   0.0000       0.059052         1.6069 
  81   0.0000       0.068752         1.8708 
*Only the first 10 virtual orbitals were printed.

                    ********************************
                    * MULLIKEN POPULATION ANALYSIS *
                    ********************************

-----------------------
MULLIKEN ATOMIC CHARGES
-----------------------
   0 O :   -0.433095
   1 O :   -0.407703
   2 C :    0.105660
   3 C :    0.106193
   4 C :    0.123488
   5 C :   -0.277047
   6 C :    0.127501
   7 C :   -0.242442
   8 C :    0.224077
   9 C :   -0.272078
  10 C :    0.242545
  11 C :   -0.303279
  12 C :   -0.195278
  13 C :   -0.159450
  14 C :   -0.193872
  15 C :   -0.194852
  16 C :   -0.085462
  17 C :   -0.088214
  18 C :   -0.280920
  19 C :   -0.270882
  20 H :    0.127266
  21 H :    0.120511
  22 H :    0.154405
  23 H :    0.132744
  24 H :    0.117051
  25 H :    0.103024
  26 H :    0.103095
  27 H :    0.096262
  28 H :    0.109659
  29 H :    0.105077
  30 H :    0.117142
  31 H :    0.107136
  32 H :    0.327610
  33 H :    0.320371
  34 H :    0.115138
  35 H :    0.109425
  36 H :    0.106241
  37 H :    0.102951
Sum of atomic charges:    0.0000000

--------------------------------
MULLIKEN REDUCED ORBITAL CHARGES
--------------------------------
  0 O s       :     3.739204  s :     3.739204
      pz      :     1.444551  p :     4.664005
      px      :     1.424310
      py      :     1.795145
      dz2     :     0.008888  d :     0.027873
      dxz     :     0.005333
      dyz     :     0.006034
      dx2y2   :     0.005874
      dxy     :     0.001745
      f0      :     0.000432  f :     0.002013
      f+1     :     0.000338
      f-1     :     0.000327
      f+2     :     0.000403
      f-2     :     0.000179
      f+3     :     0.000283
      f-3     :     0.000052

  1 O s       :     3.733515  s :     3.733515
      pz      :     1.639114  p :     4.644164
      px      :     1.236291
      py      :     1.768759
      dz2     :     0.003073  d :     0.028025
      dxz     :     0.011917
      dyz     :     0.003044
      dx2y2   :     0.005304
      dxy     :     0.004686
      f0      :     0.000144  f :     0.001999
      f+1     :     0.000244
      f-1     :     0.000030
      f+2     :     0.000516
      f-2     :     0.000139
      f+3     :     0.000506
      f-3     :     0.000420

  2 C s       :     3.238407  s :     3.238407
      pz      :     0.835814  p :     2.540686
      px      :     0.748055
      py      :     0.956817
      dz2     :     0.019685  d :     0.105903
      dxz     :     0.029331
      dyz     :     0.018852
      dx2y2   :     0.017617
      dxy     :     0.020419
      f0      :     0.001558  f :     0.009343
      f+1     :     0.001694
      f-1     :     0.001259
      f+2     :     0.001413
      f-2     :     0.001187
      f+3     :     0.001229
      f-3     :     0.001002

  3 C s       :     3.246219  s :     3.246219
      pz      :     0.837008  p :     2.518332
      px      :     0.737886
      py      :     0.943439
      dz2     :     0.028309  d :     0.119718
      dxz     :     0.028737
      dyz     :     0.022104
      dx2y2   :     0.019067
      dxy     :     0.021501
      f0      :     0.001641  f :     0.009539
      f+1     :     0.002191
      f-1     :     0.000984
      f+2     :     0.001187
      f-2     :     0.001421
      f+3     :     0.001044
      f-3     :     0.001071

  4 C s       :     3.203317  s :     3.203317
      pz      :     0.778451  p :     2.551616
      px      :     0.812413
      py      :     0.960752
      dz2     :     0.030596  d :     0.112013
      dxz     :     0.024458
      dyz     :     0.021129
      dx2y2   :     0.017281
      dxy     :     0.018549
      f0      :     0.001654  f :     0.009566
      f+1     :     0.002203
      f-1     :     0.001045
      f+2     :     0.001335
      f-2     :     0.001204
      f+3     :     0.001239
      f-3     :     0.000886

  5 C s       :     3.234029  s :     3.234029
      pz      :     1.018979  p :     2.951726
      px      :     0.957402
      py      :     0.975345
      dz2     :     0.020306  d :     0.083877
      dxz     :     0.018660
      dyz     :     0.007969
      dx2y2   :     0.015555
      dxy     :     0.021387
      f0      :     0.001064  f :     0.007415
      f+1     :     0.001391
      f-1     :     0.000573
      f+2     :     0.000971
      f-2     :     0.001144
      f+3     :     0.001289
      f-3     :     0.000984

  6 C s       :     3.173587  s :     3.173587
      pz      :     0.819730  p :     2.567793
      px      :     0.831468
      py      :     0.916595
      dz2     :     0.026037  d :     0.121258
      dxz     :     0.031115
      dyz     :     0.020950
      dx2y2   :     0.024297
      dxy     :     0.018859
      f0      :     0.001516  f :     0.009861
      f+1     :     0.002146
      f-1     :     0.001232
      f+2     :     0.001612
      f-2     :     0.001038
      f+3     :     0.001371
      f-3     :     0.000946

  7 C s       :     3.246143  s :     3.246143
      pz      :     0.951529  p :     2.909329
      px      :     0.980647
      py      :     0.977153
      dz2     :     0.015572  d :     0.079539
      dxz     :     0.022743
      dyz     :     0.017461
      dx2y2   :     0.008609
      dxy     :     0.015155
      f0      :     0.001355  f :     0.007432
      f+1     :     0.001446
      f-1     :     0.000986
      f+2     :     0.000807
      f-2     :     0.001145
      f+3     :     0.000989
      f-3     :     0.000703

  8 C s       :     3.069193  s :     3.069193
      pz      :     0.708013  p :     2.517400
      px      :     0.919768
      py      :     0.889619
      dz2     :     0.039925  d :     0.173761
      dxz     :     0.044844
      dyz     :     0.038397
      dx2y2   :     0.026678
      dxy     :     0.023917
      f0      :     0.003344  f :     0.015568
      f+1     :     0.003082
      f-1     :     0.002744
      f+2     :     0.002157
      f-2     :     0.001612
      f+3     :     0.001468
      f-3     :     0.001162

  9 C s       :     3.231750  s :     3.231750
      pz      :     0.971139  p :     2.945962
      px      :     0.995558
      py      :     0.979265
      dz2     :     0.015168  d :     0.087089
      dxz     :     0.032111
      dyz     :     0.013675
      dx2y2   :     0.013939
      dxy     :     0.012195
      f0      :     0.001269  f :     0.007278
      f+1     :     0.001568
      f-1     :     0.000922
      f+2     :     0.001068
      f-2     :     0.000571
      f+3     :     0.001155
      f-3     :     0.000725

 10 C s       :     3.052206  s :     3.052206
      pz      :     0.863884  p :     2.512021
      px      :     0.757150
      py      :     0.890987
      dz2     :     0.035018  d :     0.177667
      dxz     :     0.055796
      dyz     :     0.026397
      dx2y2   :     0.024411
      dxy     :     0.036045
      f0      :     0.002256  f :     0.015560
      f+1     :     0.003416
      f-1     :     0.001302
      f+2     :     0.001848
      f-2     :     0.002283
      f+3     :     0.002412
      f-3     :     0.002044

 11 C s       :     3.304038  s :     3.304038
      pz      :     0.994034  p :     2.909511
      px      :     1.005702
      py      :     0.909775
      dz2     :     0.014456  d :     0.084168
      dxz     :     0.011152
      dyz     :     0.024142
      dx2y2   :     0.012337
      dxy     :     0.022080
      f0      :     0.000605  f :     0.005562
      f+1     :     0.001053
      f-1     :     0.000462
      f+2     :     0.000771
      f-2     :     0.000848
      f+3     :     0.000694
      f-3     :     0.001127

 12 C s       :     3.253096  s :     3.253096
      pz      :     0.885276  p :     2.853758
      px      :     0.971624
      py      :     0.996857
      dz2     :     0.029011  d :     0.082775
      dxz     :     0.015872
      dyz     :     0.016928
      dx2y2   :     0.015695
      dxy     :     0.005269
      f0      :     0.001124  f :     0.005650
      f+1     :     0.001320
      f-1     :     0.000971
      f+2     :     0.000680
      f-2     :     0.000522
      f+3     :     0.000227
      f-3     :     0.000805

 13 C s       :     3.218675  s :     3.218675
      pz      :     0.934203  p :     2.850934
      px      :     0.948542
      py      :     0.968189
      dz2     :     0.022421  d :     0.082483
      dxz     :     0.020828
      dyz     :     0.020064
      dx2y2   :     0.011980
      dxy     :     0.007190
      f0      :     0.001419  f :     0.007358
      f+1     :     0.001259
      f-1     :     0.001188
      f+2     :     0.001235
      f-2     :     0.000902
      f+3     :     0.000740
      f-3     :     0.000616

 14 C s       :     3.260526  s :     3.260526
      pz      :     0.936329  p :     2.851279
      px      :     0.907337
      py      :     1.007613
      dz2     :     0.014421  d :     0.074543
      dxz     :     0.019001
      dyz     :     0.008635
      dx2y2   :     0.013130
      dxy     :     0.019357
      f0      :     0.000943  f :     0.007523
      f+1     :     0.001433
      f-1     :     0.000612
      f+2     :     0.000978
      f-2     :     0.001180
      f+3     :     0.001316
      f-3     :     0.001063

 15 C s       :     3.251838  s :     3.251838
      pz      :     0.940703  p :     2.862778
      px      :     0.928289
      py      :     0.993786
      dz2     :     0.014506  d :     0.072703
      dxz     :     0.018712
      dyz     :     0.015866
      dx2y2   :     0.010470
      dxy     :     0.013149
      f0      :     0.001314  f :     0.007532
      f+1     :     0.001401
      f-1     :     0.000947
      f+2     :     0.000877
      f-2     :     0.001169
      f+3     :     0.001046
      f-3     :     0.000778

 16 C s       :     3.226207  s :     3.226207
      pz      :     0.944556  p :     2.777171
      px      :     0.940038
      py      :     0.892577
      dz2     :     0.003542  d :     0.075182
      dxz     :     0.016232
      dyz     :     0.014105
      dx2y2   :     0.015583
      dxy     :     0.025721
      f0      :     0.001129  f :     0.006901
      f+1     :     0.000425
      f-1     :     0.000538
      f+2     :     0.000972
      f-2     :     0.000732
      f+3     :     0.001740
      f-3     :     0.001365

 17 C s       :     3.217463  s :     3.217463
      pz      :     0.920843  p :     2.786278
      px      :     0.921212
      py      :     0.944223
      dz2     :     0.026835  d :     0.077468
      dxz     :     0.011597
      dyz     :     0.008029
      dx2y2   :     0.024148
      dxy     :     0.006858
      f0      :     0.000888  f :     0.007005
      f+1     :     0.001160
      f-1     :     0.001023
      f+2     :     0.001566
      f-2     :     0.000787
      f+3     :     0.000712
      f-3     :     0.000869

 18 C s       :     3.271460  s :     3.271460
      pz      :     1.029939  p :     2.963046
      px      :     0.918999
      py      :     1.014108
      dz2     :     0.003584  d :     0.041577
      dxz     :     0.009706
      dyz     :     0.002708
      dx2y2   :     0.009412
      dxy     :     0.016167
      f0      :     0.001007  f :     0.004837
      f+1     :     0.000370
      f-1     :     0.000306
      f+2     :     0.000457
      f-2     :     0.000594
      f+3     :     0.001099
      f-3     :     0.001004

 19 C s       :     3.267053  s :     3.267053
      pz      :     0.972122  p :     2.957621
      px      :     1.014558
      py      :     0.970941
      dz2     :     0.010353  d :     0.041373
      dxz     :     0.009384
      dyz     :     0.004554
      dx2y2   :     0.013538
      dxy     :     0.003544
      f0      :     0.000555  f :     0.004835
      f+1     :     0.000772
      f-1     :     0.000699
      f+2     :     0.001068
      f-2     :     0.000660
[...]
Preparation and reading OPT file:      0.001 s (12.982 %)
Internal coordinates            :      0.000 s ( 0.405 %)
B/P matrices and projection     :      0.003 s (35.125 %)
Hessian update/contruction      :      0.001 s ( 6.600 %)
Making the step                 :      0.002 s (22.800 %)
Converting the step to Cartesian:      0.000 s ( 2.561 %)
Storing new data                :      0.000 s ( 0.274 %)
Checking convergence            :      0.000 s ( 0.241 %)
Final printing                  :      0.002 s (18.980 %)
Total time                      :      0.009 s

Time for energy+gradient        :     42.556 s
Time for complete geometry iter :     43.275 s

         *************************************************************
         *                GEOMETRY OPTIMIZATION CYCLE   8            *
         *************************************************************
---------------------------------
CARTESIAN COORDINATES (ANGSTROEM)
---------------------------------
  O      1.433789    1.317348    2.485329
  O     -3.617596   -2.426120    2.168281
  C      1.232595   -0.044249    0.480541
  C     -0.048149   -0.653621    0.925237
  C     -2.399847   -1.175268    0.478291
  C     -1.184550   -0.600603    0.113260
  C      2.987614    0.168443   -1.211900
  C      1.788173   -0.375590   -0.757193
  C      1.912065    0.892974    1.278554
  C     -0.160457   -1.319140    2.152621
  C     -2.472551   -1.842925    1.711528
  C     -3.616207   -1.040616   -0.416625
  C      3.561305   -0.236007   -2.557220
  C      3.640563    1.083912   -0.388026
  C     -1.355394   -1.906824    2.539200
  C      3.109715    1.447523    0.841396
  C     -4.213351   -2.353687   -0.854021
  C      2.680679    0.135904   -3.718333
  C     -5.489351   -2.698184   -0.705171
  C      2.200049   -0.714716   -4.617488
  H     -1.123917   -0.075622   -0.833376
  H      1.267185   -1.097263   -1.376281
  H      0.706424   -1.411888    2.796106
  H     -4.387604   -0.444666    0.083787
  H     -3.319686   -0.478247   -1.306700
  H      3.748934   -1.313970   -2.579202
  H      4.534252    0.251571   -2.678472
  H      4.578080    1.523146   -0.709706
  H     -1.437471   -2.438253    3.478598
  H      3.606962    2.170955    1.474738
  H     -3.525327   -3.052664   -1.322830
  H      2.430944    1.191205   -3.798526
  H      0.561370    0.929754    2.637860
  H     -4.235172   -2.572005    1.437155
  H     -5.862530   -3.654385   -1.049550
  H     -6.210322   -2.028568   -0.246979
  H      1.572936   -0.382580   -5.435627
  H      2.421211   -1.775868   -4.571369

----------------------------
CARTESIAN COORDINATES (A.U.)
----------------------------
  NO LB      ZA    FRAG     MASS         X           Y           Z
   0 O     8.0000    0    15.999    2.709468    2.489426    4.696591
   1 O     8.0000    0    15.999   -6.836266   -4.584703    4.097457
   2 C     6.0000    0    12.011    2.329268   -0.083618    0.908091
   3 C     6.0000    0    12.011   -0.090989   -1.235166    1.748445
   4 C     6.0000    0    12.011   -4.535053   -2.220934    0.903838
   5 C     6.0000    0    12.011   -2.238476   -1.134976    0.214030
   6 C     6.0000    0    12.011    5.645772    0.318311   -2.290160
   7 C     6.0000    0    12.011    3.379157   -0.709763   -1.430887
   8 C     6.0000    0    12.011    3.613279    1.687476    2.416117
   9 C     6.0000    0    12.011   -0.303220   -2.492812    4.067864
  10 C     6.0000    0    12.011   -4.672445   -3.482623    3.234320
  11 C     6.0000    0    12.011   -6.833642   -1.966479   -0.787307
  12 C     6.0000    0    12.011    6.729892   -0.445988   -4.832446
  13 C     6.0000    0    12.011    6.879667    2.048297   -0.733263
  14 C     6.0000    0    12.011   -2.561324   -3.603376    4.798392
  15 C     6.0000    0    12.011    5.876509    2.735422    1.590008
  16 C     6.0000    0    12.011   -7.962080   -4.447823   -1.613866
  17 C     6.0000    0    12.011    5.065750    0.256821   -7.026631
  18 C     6.0000    0    12.011  -10.373370   -5.098829   -1.332579
  19 C     6.0000    0    12.011    4.157490   -1.350617   -8.725788
  20 H     1.0000    0     1.008   -2.123896   -0.142905   -1.574852
  21 H     1.0000    0     1.008    2.394633   -2.073526   -2.600793
  22 H     1.0000    0     1.008    1.334949   -2.668081    5.283875
  23 H     1.0000    0     1.008   -8.291371   -0.840297    0.158334
  24 H     1.0000    0     1.008   -6.273298   -0.903755   -2.469306
  25 H     1.0000    0     1.008    7.084459   -2.483043   -4.873986
  26 H     1.0000    0     1.008    8.568494    0.475400   -5.061578
  27 H     1.0000    0     1.008    8.651318    2.878328   -1.341151
  28 H     1.0000    0     1.008   -2.716427   -4.607630    6.573597
  29 H     1.0000    0     1.008    6.816170    4.102511    2.786851
  30 H     1.0000    0     1.008   -6.661902   -5.768700   -2.499787
  31 H     1.0000    0     1.008    4.593819    2.251051   -7.178174
  32 H     1.0000    0     1.008    1.060835    1.756980    4.984832
  33 H     1.0000    0     1.008   -8.003315   -4.860384    2.715830
  34 H     1.0000    0     1.008  -11.078577   -6.905787   -1.983362
  35 H     1.0000    0     1.008  -11.735807   -3.833437   -0.466723
  36 H     1.0000    0     1.008    2.972418   -0.722972  -10.271846
  37 H     1.0000    0     1.008    4.575426   -3.355904   -8.638636

--------------------------------
INTERNAL COORDINATES (ANGSTROEM)
--------------------------------
 O      0   0   0     0.000000000000     0.00000000     0.00000000
 O      1   0   0     6.295280661711     0.00000000     0.00000000
 C      1   2   0     2.431789198746    63.84133299     0.00000000
 C      3   1   2     1.486403985929    93.10636335     0.57041823
 C      2   1   3     2.429735208156    47.68110206   324.52960968
 C      5   2   1     1.392993940657   146.29414938    24.93054028
 C      3   1   2     2.447383351848   117.52367198   179.82198441
 C      7   3   1     1.393337898127    28.72719476   181.76624370
 C      1   2   3     1.365703775049    92.96507277   359.19825321
 C      4   3   1     1.400713654016   121.73730289   304.27354925
 C      2   1   3     1.363769349545    24.33660553   355.78779891
 C      5   2   1     1.516092995638    93.10616147   207.11652136
 C      7   3   1     1.517428012639   149.43424093   180.41983150
 C      7   3   1     1.393985082243    89.09796917     1.43198719
 C     10   4   3     1.386611202705   120.98160102   181.39740153
 C     14   7   3     1.387621113025   121.10017090   359.45512658
 C     12   5   2     1.507332411937   114.31519093   300.91407289
 C     13   7   3     1.503995245746   113.40187069    63.73791009
 C     17  12   5     1.330041548797   124.97502536   126.54257659
 C     18  13   7     1.327794813459   125.19252095   237.28283883
 H      6   5   2     1.084158769258   118.51331568   181.18749863
 H      8   7   3     1.084208762302   119.15695331   180.98222229
 H     10   4   3     1.083586273054   119.79424131   359.01800257
 H     12   5   2     1.095728884387   110.09338094    64.13445451
 H     12   5   2     1.093809136667   107.96882396   179.93638002
 H     13   7   3     1.094390867808   110.19166584   301.02140580
 H     13   7   3     1.095015613269   108.38572826   184.84464043
 H     14   7   3     1.084132499982   119.72019631   179.56808845
 H     15  10   4     1.082414984142   121.02340579   178.76828790
 H     16  14   7     1.082465187369   121.18336221   181.05656233
 H     17  12   5     1.087074061888   115.75537725   306.59064944
 H     18  13   7     1.087408951279   115.55556602    56.95782116
 H      1   2   3     0.966752189350    17.33609238   160.27238042
 H      2   1   3     0.968104811797   129.75577386   313.82488875
 H     19  17  12     1.082672657940   121.58994878   179.36986049
 H     19  17  12     1.085414270975   121.64796273     0.35338089
 H     20  18  13     1.083021976003   121.64745449   180.29103079
 H     20  18  13     1.084934705235   121.60156246   359.94098239

---------------------------
INTERNAL COORDINATES (A.U.)
---------------------------
 O      0   0   0     0.000000000000     0.00000000     0.00000000
 O      1   0   0    11.896356386804     0.00000000     0.00000000
 C      1   2   0     4.595415601058    63.84133299     0.00000000
 C      3   1   2     2.808896457775    93.10636335     0.57041823
 C      2   1   3     4.591534121361    47.68110206   324.52960968
 C      5   2   1     2.632377054053   146.29414938    24.93054028
 C      3   1   2     4.624884279710   117.52367198   179.82198441
 C      7   3   1     2.633027039474    28.72719476   181.76624370
 C      1   2   3     2.580806114906    92.96507277   359.19825321
 C      4   3   1     2.646965198135   121.73730289   304.27354925
 C      2   1   3     2.577150580476    24.33660553   355.78779891
 C      5   2   1     2.865000555312    93.10616147   207.11652136
 C      7   3   1     2.867523371828   149.43424093   180.41983150
 C      7   3   1     2.634250040211    89.09796917     1.43198719
 C     10   4   3     2.620315427340   120.98160102   181.39740153
 C     14   7   3     2.622223881264   121.10017090   359.45512658
 C     12   5   2     2.848445451344   114.31519093   300.91407289
 C     13   7   3     2.842139121179   113.40187069    63.73791009
 C     17  12   5     2.513414273962   124.97502536   126.54257659
 C     18  13   7     2.509168559478   125.19252095   237.28283883
 H      6   5   2     2.048763159587   118.51331568   181.18749863
 H      8   7   3     2.048857632749   119.15695331   180.98222229
 H     10   4   3     2.047681298549   119.79424131   359.01800257
 H     12   5   2     2.070627508518   110.09338094    64.13445451
 H     12   5   2     2.066999711082   107.96882396   179.93638002
 H     13   7   3     2.068099023622   110.19166584   301.02140580
 H     13   7   3     2.069279621447   108.38572826   184.84464043
 H     14   7   3     2.048713517850   119.72019631   179.56808845
 H     15  10   4     2.045467883280   121.02340579   178.76828790
 H     16  14   7     2.045562753632   121.18336221   181.05656233
 H     17  12   5     2.054272264257   115.75537725   306.59064944
 H     18  13   7     2.054905113491   115.55556602    56.95782116
 H      1   2   3     1.826896877241    17.33609238   160.27238042
 H      2   1   3     1.829452963228   129.75577386   313.82488875
 H     19  17  12     2.045954816192   121.58994878   179.36986049
 H     19  17  12     2.051135713993   121.64796273     0.35338089
 H     20  18  13     2.046614931663   121.64745449   180.29103079
 H     20  18  13     2.050229466082   121.60156246   359.94098239



           ************************************************************
           *        Program running with 20 parallel MPI-processes    *
           *              working on a common directory               *
           ************************************************************
------------------------------------------------------------------------------
                   ___                                                        
                  /   \      - P O W E R E D   B Y -                         
                 /     \                                                     
                 |  |  |   _    _      __       _____    __    __             
                 |  |  |  | |  | |    /  \     |  _  \  |  |  /  |          
                  \  \/   | |  | |   /    \    | | | |  |  | /  /          
                 / \  \   | |__| |  /  /\  \   | |_| |  |  |/  /          
                |  |  |   |  __  | /  /__\  \  |    /   |      \           
                |  |  |   | |  | | |   __   |  |    \   |  |\   \          
                \     /   | |  | | |  |  |  |  | |\  \  |  | \   \       
                 \___/    |_|  |_| |__|  |__|  |_| \__\ |__|  \__/        
                                                                              
                      - O R C A' S   B I G   F R I E N D -                    
                                      &                                       
                       - I N T E G R A L  F E E D E R -                       
                                                                              
 v1 FN, 2020, v2 2021, v3 2022-2024                                           
------------------------------------------------------------------------------


----------------------
SHARK INTEGRAL PACKAGE
----------------------

Number of atoms                             ...     38
Number of basis functions                   ...    728
Number of shells                            ...    292
Maximum angular momentum                    ...      3
Integral batch strategy                     ... SHARK/LIBINT Hybrid
RI-J (if used) integral strategy            ... SPLIT-RIJ (Revised 2003 algorithm where possible)
Printlevel                                  ...      1
Contraction scheme used                     ... SEGMENTED contraction
Prescreening option                         ... SCHWARTZ
   Thresh                                   ... 2.500e-11
   Tcut                                     ... 2.500e-12
   Tpresel                                  ... 2.500e-12 
Coulomb Range Separation                    ... NOT USED
Exchange Range Separation                   ... NOT USED
Multipole approximations                    ... NOT USED
Finite Nucleus Model                        ... NOT USED
CABS basis                                  ... NOT available
Auxiliary Coulomb fitting basis             ... AVAILABLE
   # of basis functions in Aux-J            ...   1178
   # of shells in Aux-J                     ...    390
   Maximum angular momentum in Aux-J        ...      4
Auxiliary J/K fitting basis                 ... NOT available
Auxiliary Correlation fitting basis         ... NOT available
Auxiliary 'external' fitting basis          ... NOT available

Checking pre-screening integrals            ... done (  0.0 sec) Dimension = 292
Check shell pair data                       ... done (  0.0 sec)
Shell pair information
Shell pair cut-off parameter TPreSel        ...   2.5e-12
Total number of shell pairs                 ...     42778
Shell pairs after pre-screening             ...     29564
Total number of primitive shell pairs       ...    129780
Primitive shell pairs kept                  ...     60530
          la=0 lb=0:   7974 shell pairs
          la=1 lb=0:   8632 shell pairs
          la=1 lb=1:   2354 shell pairs
          la=2 lb=0:   4131 shell pairs
          la=2 lb=1:   2264 shell pairs
          la=2 lb=2:    561 shell pairs
          la=3 lb=0:   1937 shell pairs
          la=3 lb=1:   1079 shell pairs
          la=3 lb=2:    503 shell pairs
          la=3 lb=3:    129 shell pairs

Calculating one electron integrals          ... done (  0.0 sec)
Calculating RI/J V-Matrix + Cholesky decomp.... done (  0.1 sec)
Calculating Nuclear repulsion               ... done (  0.0 sec) ENN=   1414.253759126792 Eh

Diagonalization of the overlap matrix:
Smallest eigenvalue                        ... 6.551e-06
Time for diagonalization                   ...    0.066 sec
Threshold for overlap eigenvalues          ... 1.000e-07
Number of eigenvalues below threshold      ... 0
Time for construction of square roots      ...    0.029 sec
Total time needed                          ...    0.099 sec

-------------------
DFT GRID GENERATION
-------------------

General Integration Accuracy     IntAcc      ... 4.388
Radial Grid Type                 RadialGrid  ... OptM3 with GC (2021)
Angular Grid (max. ang.)         AngularGrid ... 4 (Lebedev-302)
Angular grid pruning method      GridPruning ... 4 (adaptive)
Weight generation scheme         WeightScheme... mBecke (2022)
Basis function cutoff            BFCut       ... 1.0000e-11
Integration weight cutoff        WCut        ... 1.0000e-14
Partially contracted basis set               ... off
Rotationally invariant grid construction     ... off
Angular grids for H and He will be reduced by one unit

Total number of grid points                  ...   177196
Total number of batches                      ...     2787
Average number of points per batch           ...       63
Average number of grid points per atom       ...     4663

--------------------
COSX GRID GENERATION
--------------------

GRIDX 1
-------
General Integration Accuracy     IntAcc      ... 3.816
Radial Grid Type                 RadialGrid  ... OptM3 with GC (2021)
Angular Grid (max. ang.)         AngularGrid ... 1 (Lebedev-50)
Angular grid pruning method      GridPruning ... 4 (adaptive)
Weight generation scheme         WeightScheme... mBecke (2022)
Basis function cutoff            BFCut       ... 1.0000e-11
Integration weight cutoff        WCut        ... 1.0000e-14
Partially contracted basis set               ... on
Rotationally invariant grid construction     ... off
Angular grids for H and He will be reduced by one unit

Total number of grid points                  ...    22508
Total number of batches                      ...      198
Average number of points per batch           ...      113
Average number of grid points per atom       ...      592
UseSFitting                                  ... on

GRIDX 2
-------
General Integration Accuracy     IntAcc      ... 4.020
Radial Grid Type                 RadialGrid  ... OptM3 with GC (2021)
Angular Grid (max. ang.)         AngularGrid ... 2 (Lebedev-110)
Angular grid pruning method      GridPruning ... 4 (adaptive)
Weight generation scheme         WeightScheme... mBecke (2022)
Basis function cutoff            BFCut       ... 1.0000e-11
Integration weight cutoff        WCut        ... 1.0000e-14
Partially contracted basis set               ... on
Rotationally invariant grid construction     ... off
Angular grids for H and He will be reduced by one unit

Total number of grid points                  ...    48604
Total number of batches                      ...      402
Average number of points per batch           ...      120
Average number of grid points per atom       ...     1279
UseSFitting                                  ... on

GRIDX 3
-------
General Integration Accuracy     IntAcc      ... 4.338
Radial Grid Type                 RadialGrid  ... OptM3 with GC (2021)
Angular Grid (max. ang.)         AngularGrid ... 3 (Lebedev-194)
Angular grid pruning method      GridPruning ... 4 (adaptive)
Weight generation scheme         WeightScheme... mBecke (2022)
Basis function cutoff            BFCut       ... 1.0000e-11
Integration weight cutoff        WCut        ... 1.0000e-14
Partially contracted basis set               ... on
Rotationally invariant grid construction     ... off
Angular grids for H and He will be reduced by one unit

Total number of grid points                  ...   106262
Total number of batches                      ...      849
Average number of points per batch           ...      125
Average number of grid points per atom       ...     2796
UseSFitting                                  ... on
Initializing property integral containers    ... done (  0.0 sec)

SHARK setup successfully completed in   2.1 seconds

Maximum memory used throughout the entire STARTUP-calculation: 74.5 MB


           ************************************************************
           *        Program running with 20 parallel MPI-processes    *
           *              working on a common directory               *
           ************************************************************
Occupation numbers will be reassigned to an Aufbau configuration
             **** ENERGY FILE WAS UPDATED (honokiol2.en.tmp) ****
Finished Guess after   0.9 sec
Maximum memory used throughout the entire GUESS-calculation: 63.8 MB

ORCA finished by error termination in LEANSCF
Calling Command: mpirun -np 20  /home/yongsang/orca_6_0_1_linux_x86-64_shared_openmpi416/orca_leanscf_mpi honokiol2.gbw honokiol2 
[file orca_tools/qcmsg.cpp, line 394]: 
  .... aborting the run

