
                                 *****************
                                 * O   R   C   A *
                                 *****************

                                            #,                                       
                                            ###                                      
                                            ####                                     
                                            #####                                    
                                            ######                                   
                                           ########,                                 
                                     ,,################,,,,,                         
                               ,,#################################,,                 
                          ,,##########################################,,             
                       ,#########################################, ''#####,          
                    ,#############################################,,   '####,        
                  ,##################################################,,,,####,       
                ,###########''''           ''''###############################       
              ,#####''   ,,,,##########,,,,          '''####'''          '####       
            ,##' ,,,,###########################,,,                        '##       
           ' ,,###''''                  '''############,,,                           
         ,,##''                                '''############,,,,        ,,,,,,###''
      ,#''                                            '''#######################'''  
     '                                                          ''''####''''         
             ,#######,   #######,   ,#######,      ##                                
            ,#'     '#,  ##    ##  ,#'     '#,    #''#        ,####,   ,####,        
            ##       ##  ##   ,#'  ##            #'  '#       #'       #'  '#        
            ##       ##  #######   ##           ,######,      #####,   #    #        
            '#,     ,#'  ##    ##  '#,     ,#' ,#      #,     #,   #   #,  ,#        
             '#######'   ##     ##  '#######'  #'      '#     '####' # '####'        



                #########################################################
                #                        -***-                          #
                #          Department of theory and spectroscopy        #
                #                                                       #
                #                      Frank Neese                      #
                #                                                       #
                #     Directorship, Architecture, Infrastructure        #
                #                    SHARK, DRIVERS                     #
                #        Core code/Algorithms in most modules           #
                #                                                       #
                #        Max Planck Institute fuer Kohlenforschung      #
                #                Kaiser Wilhelm Platz 1                 #
                #                 D-45470 Muelheim/Ruhr                 #
                #                      Germany                          #
                #                                                       #
                #                  All rights reserved                  #
                #                        -***-                          #
                #########################################################


                         Program Version 6.0.1  -  RELEASE   -


 With contributions from (in alphabetic order):
[Max-Planck-Institut fuer Kohlenforschung]                               
  Daniel Aravena         : Magnetic Suceptibility                        
  Michael Atanasov       : Ab Initio Ligand Field Theory (pilot matlab implementation)
  Alexander A. Auer      : GIAO ZORA, VPT2 properties, NMR spectrum      
  Ute Becker             : All parallelization in ORCA, NUMFREQ, NUMCALC 
  Giovanni Bistoni       : ED, misc. LED, open-shell LED, HFLD           
  Martin Brehm           : Molecular dynamics                            
  Dmytro Bykov           : pre 5.0 version of the SCF Hessian            
  Marcos Casanova-Páez   : Triplet and SCS-CIS(D). UHF-(DLPNO)-IP/EA/STEOM-CCSD. UHF-CVS-IP/STEOM-CCSD   
  Vijay G. Chilkuri      : MRCI spin determinant printing, contributions to CSF-ICE 
  Pauline Colinet        : FMM embedding                                 
  Dipayan Datta          : RHF DLPNO-CCSD density                        
  Achintya Kumar Dutta   : EOM-CC, STEOM-CC                              
  Nicolas Foglia         : Exact transition moments, OPA infrastructure, MCD improvements    
  Dmitry Ganyushin       : Spin-Orbit,Spin-Spin,Magnetic field MRCI      
  Miquel Garcia-Rates    : C-PCM and meta-GGA Hessian, CCSD/C-PCM, Gaussian charge scheme 
  Tiago L. C. Gouveia    : GS-ROHF, GS-ROCIS                             
  Yang Guo               : DLPNO-NEVPT2, F12-NEVPT2, CIM, IAO-localization        
  Andreas Hansen         : Spin unrestricted coupled pair/coupled cluster methods 
  Ingolf Harden          : AUTO-CI MPn and infrastructure                
  Benjamin Helmich-Paris : MC-RPA, TRAH-(SCF,CASSCF), AVAS, COSX integrals, SCF dyn. polar. 
  Lee Huntington         : MR-EOM, pCC                                   
  Robert Izsak           : Overlap fitted RIJCOSX, COSX-SCS-MP3, EOM     
  Riya Kayal             : Wick's Theorem for AUTO-CI, AUTO-CI UHF-CCSDT 
  Emily Kempfer          : AUTO-CI, RHF CISDT and CCSDT                  
  Christian Kollmar      : KDIIS, OOCD, Brueckner-CCSD(T), CCSD density, CASPT2, CASPT2-K, improved NEVPT2 
  Axel Koslowski         : Symmetry handling                             
  Simone Kossmann        : meta-GGA functionals, TD-DFT gradient, OOMP2, (MP2 Hessian; deprecated post 5.0) 
  Lucas Lang             : DCDCAS                                        
  Marvin Lechner         : AUTO-CI (C++ implementation), FIC-MRCC        
  Spencer Leger          : CASSCF response                               
  Dagmar Lenk            : GEPOL surface, SMD, ORCA-2-JSON               
  Dimitrios Liakos       : Extrapolation schemes; Compound Job, initial MDCI parallelization 
  Dimitrios Manganas     : Further ROCIS development; embedding schemes. LFT, Crystal Embedding 
  Dimitrios Pantazis     : SARC Basis sets                               
  Anastasios Papadopoulos: AUTO-CI, single reference methods and gradients 
  Taras Petrenko         : pre 6.0 DFT Hessian and TD-DFT gradient, (ASA, deprecated), ECA, 1-Electron XAS/XES, NRVS 
  Peter Pinski           : DLPNO-MP2, DLPNO-MP2 Gradient                 
  Christoph Reimann      : Effective Core Potentials                     
  Marius Retegan         : Local ZFS, SOC                                
  Christoph Riplinger    : Optimizer, TS searches, QM/MM, DLPNO-CCSD(T), (RO)-DLPNO pert. Triples 
  Michael Roemelt        : Original ROCIS implementation                 
  Masaaki Saitow         : Open-shell DLPNO-CCSD energy and density      
  Barbara Sandhoefer     : DKH picture change effects                    
  Kantharuban Sivalingam : CASSCF convergence/infrastructure, NEVPT2 and variants, FIC-MRCI 
  Bernardo de Souza      : ESD, SOC TD-DFT                               
  Georgi L. Stoychev     : AutoAux, RI-MP2 NMR, DLPNO-MP2 response, X2C  
  Van Anh Tran           : RI-MP2 g-tensors                              
  Willem Van den Heuvel  : Paramagnetic NMR                              
  Zikuan Wang            : NOTCH, Electric field optimization            
  Frank Wennmohs         : Technical directorship and infrastructure     
  Hang Xu                : AUTO-CI-Response properties                   
                                                                         
[FACCTs GmbH]                                                            
  Markus Bursch, Miquel Garcia-Rates, Christoph Riplinger, Bernardo de Souza, Georgi L. Stoychev 
                                                                 
  APM, Basis sets (HGBS, AHGBS, def-TZVP (Ac-Lr), def2-XVPD (La-Lu)), CI-OPT, improved COSX, DLPNO-Multilevel,           
  DOCKER, DRACO, updates on ESD, GOAT, IRC, LR-CPCM, MBIS, meta-GGA TD-DFT gradient, ML-optimized integration grids, 
  MM, NACMEs, nearIR, NEB, NEB-TS, NL-DFT gradient (VV10), 2- and 3-layer-ONIOM, interface openCOSMO-RS, QMMM,   
  Crystal-QMMM, SF, symmetry and pop. for TD-DFT, r2SCAN hybrids, SOLVATOR                                   
                                                                         
[Other institutions]                                                     
  V. Asgeirsson          : NEB                                           
  Christoph Bannwarth    : sTDA-DFT, sTD-DFT, PBEh-3c, B97-3c, D3        
  Sebastian Ehlert       : rSCAN, r2SCAN, r2SCAN-3c, D4, dhf basis sets  
  Marvin Friede          : D4 for Fr, Ra, Ac-Lr                          
  Lars Goerigk           : TD-DFT with DH, B97 family of functionals     
  Stefan Grimme          : VdW corrections, initial TS optimization, DFT functionals, gCP, sTDA/sTD-DF 
  Waldemar Hujo          : DFT-NL                                        
  H. Jonsson             : NEB                                           
  Holger Kruse           : gCP                                           
  Marcel Mueller         : wB97X-3c, vDZP basis set                      
  Hagen Neugebauer       : wr2SCAN                                       
  Tobias Risthaus        : range-separated hybrid DFT                    
  Lukas Wittmann         : regularized MP2, r2SCAN double-hybrids, wr2SCAN        
                                                                         
We gratefully acknowledge several colleagues who have allowed us to      
interface, adapt or use parts of their codes:                            
  Ed Valeev, F. Pavosevic, A. Kumar             : LibInt (2-el integral package), F12 methods 
  Garnet Chan, S. Sharma, J. Yang, R. Olivares  : DMRG                   
  Ulf Ekstrom                                   : XCFun DFT Library      
  Mihaly Kallay                                 : mrcc  (arbitrary order and MRCC methods)
  Frank Weinhold                                : gennbo (NPA and NBO analysis)           
  Simon Mueller                                 : openCOSMO-RS                            
  Christopher J. Cramer and Donald G. Truhlar   : smd solvation model                     
  S Lehtola, MJT Oliveira, MAL Marques          : LibXC Library                           
  Liviu Ungur et al                             : ANISO software                          


 Your calculation uses the libint2 library for the computation of 2-el integrals
 For citations please refer to: http://libint.valeyev.net

 Your ORCA version has been built with support for libXC version: 6.2.2
 For citations please refer to: https://libxc.gitlab.io

 This ORCA versions uses:
   CBLAS   interface :  Fast vector & matrix operations
   LAPACKE interface :  Fast linear algebra routines
   SCALAPACK package :  Parallel linear algebra routines
   Shared memory     :  Shared parallel matrices
   BLAS/LAPACK       :  OpenBLAS 0.3.27  USE64BITINT DYNAMIC_ARCH NO_AFFINITY SkylakeX SINGLE_THREADED
        Core in use  :  SkylakeX
   Copyright (c) 2011-2014, The OpenBLAS Project


NOTE: MaxCore=5000 MB was set to SCF,MP2,MDCI,CIPSI,MRCI and CIS
      => If you want to overwrite this, your respective input block should be placed after the MaxCore statement
Your calculation utilizes the atom-pairwise dispersion correction
with the Becke-Johnson damping scheme (D3BJ)


Warning: RI is on but no J-basis has been assigned. Assigning Def2/J (nothing to worry about!)
================================================================================

----- Orbital basis set information -----
Your calculation utilizes the basis: def2-TZVP
   F. Weigend and R. Ahlrichs, Phys. Chem. Chem. Phys. 7, 3297 (2005).

----- AuxJ basis set information -----
Your calculation utilizes the auxiliary basis: def2/J
   F. Weigend, Phys. Chem. Chem. Phys. 8, 1057 (2006).

================================================================================
                                        WARNINGS
                       Please study these warnings very carefully!
================================================================================


WARNING: Geometry Optimization
  ===> : Switching off AutoStart
         For restart on a previous wavefunction, please use MOREAD

================================================================================
                                       INPUT FILE
================================================================================
NAME = honokiol3_EC.inp
|  1> ! OPT B3LYP def2-TZVP TightSCF D3BJ RIJCOSX
|  2> 
|  3> %maxcore 5000
|  4> 
|  5> %pal
|  6> nprocs 30
|  7> end
|  8> 
|  9> * xyz 0 1
| 10> O           1.65266421254053      0.92616388892552      2.76343669965113
| 11>   O          -3.50291663284164     -2.71579500378780      2.12390789311047
| 12>   C           1.26398228533315     -0.09185658747685      0.58562851256351
| 13>   C           0.00713182440787     -0.75765213640788      0.99475414690385
| 14>   C          -2.35202210737830     -1.23226753899003      0.58279570319927
| 15>   C          -1.15939761145680     -0.59940789139936      0.24783701781243
| 16>   C           2.93079460820309      0.30187223725608     -1.15692223753007
| 17>   C           1.72983801212234     -0.24590011646263     -0.72045836426085
| 18>   C           2.02600283764037      0.68074310189924      1.47900895340511
| 19>   C          -0.04028790840830     -1.59260730557109      2.11281739085925
| 20>   C          -2.35895744222835     -2.07906889487971      1.69725440609919
| 21>   C          -3.61082508314770     -0.99080205339047     -0.21798429376854
| 22>   C           3.40894164162203      0.07978466852350     -2.57686807402964
| 23>   C           3.68109504500268      1.03595796995179     -0.24202759450954
| 24>   C          -1.20808796923037     -2.25468325164531      2.45416546601604
| 25>   C           3.23388540232970      1.22737545415460      1.05588985333357
| 26>   C          -4.16517466403738     -2.24690931652032     -0.83150109419697
| 27>   C           2.38966123602255      0.47299581716766     -3.60528602260752
| 28>   C          -5.39198448476050     -2.71846764047786     -0.62917533013068
| 29>   C           1.85454262286113     -0.34826348319184     -4.50003526991156
| 30>   H          -1.14589463316560      0.06579587670378     -0.60687099120336
| 31>   H           1.13982388296923     -0.83807532214898     -1.40978154326589
| 32>   H           0.84910322418745     -1.73284167764523      2.71185054302364
| 33>   H          -4.37775708616194     -0.52395628207214      0.40912612188682
| 34>   H          -3.37952396392754     -0.27594591555635     -1.01150837880046
| 35>   H           3.68159682828304     -0.97008256835111     -2.72397632580054
| 36>   H           4.32118017864484      0.66461604883331     -2.73004086741308
| 37>   H           4.62374100856352      1.47331111550079     -0.54985342816829
| 38>   H          -1.24234130897948     -2.91931388512623      3.30742535548276
| 39>   H           3.80024234207453      1.82131344018327      1.76097490132850
| 40>   H          -3.47891597948351     -2.80011164936961     -1.46681756777889
| 41>   H           2.07211723097698      1.51225383383624     -3.57753908190619
| 42>   H           0.68534474810245      0.93219570859890      2.86246915720318
| 43>   H          -4.08037247175556     -2.88852403835880      1.36406361769260
| 44>   H          -5.73353632506199     -3.63363568610499     -1.09517442030740
| 45>   H          -6.10639934741375     -2.18958118083184     -0.00618444565086
| 46>   H           1.11740629329467     -0.00782765739386     -5.21639303354392
| 47>   H           2.14083153946048     -1.39336718116160     -4.54979839503778
| 48>   H          -4.42393059521554     -0.69339501460888      3.08099908988833
| 49>   H          -3.24780513051096     -1.49766980140477      5.02783055141254
| 50>   O          -1.99438616908393      0.04498058716866      4.56666833152248
| 51>   C          -3.27326053133592     -0.41742349372460      4.90626481687791
| 52>   C          -4.16332448853087      0.09785896146988      3.78020458099560
| 53>   C          -2.06821761332671      0.93866715719521      3.54111218717474
| 54>   O          -1.13157495298713      1.52253869458466      3.09610638200447
| 55>   O          -3.33286024607366      1.05674901781395      3.10809127762430
| 56>   H          -5.04819497725345      0.59836952214649      4.16570504936974
| 57>   H          -3.63916207368565      0.13401744704668      6.11272519348052
| 58> *
| 59> 
| 60>                          ****END OF INPUT****
================================================================================

                       *****************************
                       * Geometry Optimization Run *
                       *****************************

Geometry optimization settings:
Update method            Update   .... BFGS
Choice of coordinates    CoordSys .... (2022) Redundant Internals
Initial Hessian          InHess   .... Almloef's Model
Max. no of cycles        MaxIter  .... 144

Convergence Tolerances:
Energy Change            TolE     ....  5.0000e-06 Eh
Max. Gradient            TolMAXG  ....  3.0000e-04 Eh/bohr
RMS Gradient             TolRMSG  ....  1.0000e-04 Eh/bohr
Max. Displacement        TolMAXD  ....  4.0000e-03 bohr
RMS Displacement         TolRMSD  ....  2.0000e-03 bohr
Strict Convergence                .... False

------------------------------------------------------------------------------
                        ORCA OPTIMIZATION COORDINATE SETUP
------------------------------------------------------------------------------

The optimization will be done in redundant internal coordinates (2022)
Making redundant internal coordinates   ...  (2022 redundants) done
Evaluating the initial hessian          ...  (Almloef) done
Evaluating the coordinates              ...  done
Calculating the B-matrix                .... done
Calculating the G-matrix                .... done
Diagonalizing the G-matrix              .... done
Small eigenvalue found = 3.051e-03
Small eigenvalue found = 6.222e-03
Small eigenvalue found = 1.225e-02
Small eigenvalue found = 1.297e-02
Small eigenvalue found = 1.586e-02
Small eigenvalue found = 2.330e-02
Small eigenvalue found = 2.780e-02
The first mode is                       ....  109
The number of degrees of freedom        ....  138

    -----------------------------------------------------------------
                    Redundant Internal Coordinates


    -----------------------------------------------------------------
         Definition                    Initial Value    Approx d2E/dq
    -----------------------------------------------------------------
      1. B(C   3,C   2)                  1.4800         0.448933   
      2. B(C   5,C   4)                  1.3911         0.622357   
      3. B(C   5,C   3)                  1.3942         0.615292   
      4. B(C   7,C   2)                  1.3952         0.612949   
      5. B(C   7,C   6)                  1.3903         0.624176   
      6. B(C   8,C   2)                  1.4056         0.589995   
      7. B(C   8,O   0)                  1.3599         0.624992   
      8. B(C   9,C   3)                  1.3962         0.610655   
      9. B(C  10,C   4)                  1.3997         0.602941   
     10. B(C  10,O   1)                  1.3770         0.586996   
     11. B(C  11,C   4)                  1.5113         0.400086   
     12. B(C  12,C   6)                  1.5147         0.395232   
     13. B(C  13,C   6)                  1.3924         0.619241   
     14. B(C  14,C  10)                  1.3886         0.627980   
     15. B(C  14,C   9)                  1.3851         0.636046   
     16. B(C  15,C  13)                  1.3861         0.633851   
     17. B(C  15,C   8)                  1.3917         0.620916   
     18. B(C  16,C  11)                  1.5038         0.411269   
     19. B(C  17,C  12)                  1.5004         0.416493   
     20. B(C  18,C  16)                  1.3298         0.779445   
     21. B(C  19,C  17)                  1.3272         0.786993   
     22. B(H  20,C   5)                  1.0831         0.369283   
     23. B(H  21,C   7)                  1.0835         0.368813   
     24. B(H  22,C   9)                  1.0814         0.371597   
     25. B(H  23,C  11)                  1.0952         0.353325   
     26. B(H  24,C  11)                  1.0928         0.356422   
     27. B(H  25,C  12)                  1.0946         0.354034   
     28. B(H  26,C  12)                  1.0944         0.354351   
     29. B(H  27,C  13)                  1.0838         0.368400   
     30. B(H  28,C  14)                  1.0821         0.370692   
     31. B(H  29,C  15)                  1.0820         0.370876   
     32. B(H  30,C  16)                  1.0866         0.364681   
     33. B(H  31,C  17)                  1.0870         0.364034   
     34. B(H  32,O   0)                  0.9724         0.496812   
     35. B(H  33,O   1)                  0.9699         0.501435   
     36. B(H  34,C  18)                  1.0823         0.370449   
     37. B(H  35,C  18)                  1.0855         0.366154   
     38. B(H  36,C  19)                  1.0828         0.369765   
     39. B(H  37,C  19)                  1.0847         0.367114   
     40. B(H  38,O   1)                  2.4196         0.002439   
     41. B(C  41,O  40)                  1.4017         0.536125   
     42. B(C  41,H  39)                  1.0874         0.363605   
     43. B(C  42,C  41)                  1.5250         0.380447   
     44. B(C  42,H  38)                  1.0876         0.363281   
     45. B(C  43,O  40)                  1.3623         0.619514   
     46. B(O  44,H  32)                  1.9247         0.015029   
     47. B(O  44,C  43)                  1.1901         1.166465   
     48. B(O  45,H  38)                  2.0626         0.009055   
     49. B(O  45,C  43)                  1.3419         0.667684   
     50. B(O  45,C  42)                  1.4356         0.473328   
     51. B(H  46,C  42)                  1.0873         0.363753   
     52. B(H  47,C  41)                  1.3761         0.125906   
     53. A(C   8,O   0,H  32)          111.7408         0.367739   
     54. A(C  10,O   1,H  33)          109.5262         0.364387   
     55. A(H  33,O   1,H  38)          103.4221         0.157614   
     56. A(C  10,O   1,H  38)           92.9977         0.171498   
     57. A(C   3,C   2,C   8)          122.1386         0.406169   
     58. A(C   3,C   2,C   7)          119.5161         0.408921   
     59. A(C   7,C   2,C   8)          118.3370         0.429331   
     60. A(C   5,C   3,C   9)          117.9348         0.432289   
     61. A(C   2,C   3,C   9)          121.2807         0.408650   
     62. A(C   2,C   3,C   5)          120.7576         0.409198   
     63. A(C  10,C   4,C  11)          120.9578         0.399529   
     64. A(C   5,C   4,C  11)          120.9186         0.401764   
     65. A(C   5,C   4,C  10)          118.1129         0.432188   
     66. A(C   3,C   5,H  20)          118.8180         0.353960   
     67. A(C   3,C   5,C   4)          122.4604         0.433767   
     68. A(C   4,C   5,H  20)          118.6918         0.354645   
     69. A(C   7,C   6,C  13)          117.8339         0.434495   
     70. A(C  12,C   6,C  13)          121.5445         0.400547   
     71. A(C   7,C   6,C  12)          120.6127         0.401107   
     72. A(C   2,C   7,H  21)          118.2998         0.353655   
     73. A(C   2,C   7,C   6)          122.6030         0.433697   
     74. A(C   6,C   7,H  21)          119.0784         0.354744   
     75. A(O   0,C   8,C   2)          123.4129         0.428021   
     76. A(C   2,C   8,C  15)          119.5501         0.430327   
     77. A(O   0,C   8,C  15)          117.0355         0.431963   
     78. A(C   3,C   9,C  14)          120.7844         0.434876   
     79. A(C  14,C   9,H  22)          119.6618         0.356334   
     80. A(C   3,C   9,H  22)          119.5496         0.353881   
     81. A(O   1,C  10,C   4)          122.0441         0.424888   
     82. A(O   1,C  10,C  14)          117.4621         0.427996   
     83. A(C   4,C  10,C  14)          120.4249         0.432888   
     84. A(C   4,C  11,C  16)          112.9384         0.373771   
     85. A(H  23,C  11,H  24)          106.5691         0.289507   
     86. A(C   4,C  11,H  24)          108.2381         0.327444   
     87. A(C  16,C  11,H  23)          109.3613         0.328463   
     88. A(C   4,C  11,H  23)          110.3638         0.326974   
     89. A(C  16,C  11,H  24)          109.1581         0.328937   
     90. A(C   6,C  12,C  17)          112.9352         0.373798   
     91. A(H  25,C  12,H  26)          106.6249         0.289334   
     92. A(C  17,C  12,H  26)          109.2864         0.329306   
     93. A(C   6,C  12,H  26)          108.4209         0.326473   
     94. A(C  17,C  12,H  25)          109.1749         0.329257   
     95. A(C   6,C  12,H  25)          110.1970         0.326425   
     96. A(C   6,C  13,C  15)          120.9445         0.435700   
     97. A(C  15,C  13,H  27)          119.3967         0.355604   
     98. A(C   6,C  13,H  27)          119.6559         0.354200   
     99. A(C  10,C  14,H  28)          118.7669         0.355416   
    100. A(C   9,C  14,H  28)          120.9696         0.356187   
    101. A(C   9,C  14,C  10)          120.2628         0.437073   
    102. A(C  13,C  15,H  29)          121.1403         0.356008   
    103. A(C   8,C  15,H  29)          118.1511         0.354765   
    104. A(C   8,C  15,C  13)          120.6957         0.435912   
    105. A(C  11,C  16,C  18)          125.0435         0.420170   
    106. A(C  18,C  16,H  30)          119.4124         0.367736   
    107. A(C  11,C  16,H  30)          115.5301         0.330184   
    108. A(C  12,C  17,C  19)          125.0185         0.421842   
    109. A(C  19,C  17,H  31)          119.4081         0.368232   
    110. A(C  12,C  17,H  31)          115.5630         0.330777   
    111. A(H  34,C  18,H  35)          116.8350         0.292906   
    112. A(C  16,C  18,H  35)          121.4488         0.367991   
    113. A(C  16,C  18,H  34)          121.7009         0.368728   
    114. A(H  36,C  19,H  37)          116.8873         0.292942   
    115. A(C  17,C  19,H  37)          121.3793         0.368766   
    116. A(C  17,C  19,H  36)          121.7328         0.369221   
    117. A(O   0,H  32,O  44)          162.4328         0.192330   
    118. A(O   1,H  38,C  42)          140.4603         0.153539   
    119. A(C  41,O  40,C  43)          110.4480         0.417368   
    120. A(H  39,C  41,O  40)          109.4792         0.342823   
    121. A(O  40,C  41,H  47)          108.8342         0.288656   
    122. A(H  39,C  41,H  47)          107.8378         0.248464   
    123. A(C  42,C  41,H  47)          110.9029         0.275274   
    124. A(O  40,C  41,C  42)          104.0131         0.385497   
    125. A(H  39,C  41,C  42)          115.5871         0.325810   
    126. A(O  45,C  42,H  46)          109.2277         0.335788   
    127. A(C  41,C  42,H  46)          111.6376         0.325832   
    128. A(H  38,C  42,H  46)          111.5825         0.291704   
    129. A(C  41,C  42,O  45)          103.5186         0.377254   
    130. A(H  38,C  42,O  45)          108.8790         0.335716   
    131. A(H  38,C  42,C  41)          111.6371         0.325762   
    132. A(O  44,C  43,O  45)          125.3024         0.487230   
    133. A(O  40,C  43,O  45)          110.5925         0.434089   
    134. A(O  40,C  43,O  44)          124.1042         0.480538   
    135. A(H  32,O  44,C  43)          129.6359         0.234435   
    136. A(C  42,O  45,C  43)          109.5920         0.413695   
    137. D(C   5,C   3,C   2,C   8)    129.1776         0.013739   
    138. D(C   9,C   3,C   2,C   7)    126.1888         0.013739   
    139. D(C   5,C   3,C   2,C   7)    -51.8865         0.013739   
    140. D(C   9,C   3,C   2,C   8)    -52.7472         0.013739   
    141. D(H  20,C   5,C   3,C   9)    178.3770         0.026173   
    142. D(H  20,C   5,C   4,C  10)   -179.3865         0.026814   
    143. D(H  20,C   5,C   4,C  11)     -0.5689         0.026814   
    144. D(C   4,C   5,C   3,C   9)      0.3889         0.026173   
    145. D(C   3,C   5,C   4,C  11)    177.4216         0.026814   
    146. D(C   3,C   5,C   4,C  10)     -1.3960         0.026814   
    147. D(C   4,C   5,C   3,C   2)    178.5270         0.026173   
    148. D(H  20,C   5,C   3,C   2)     -3.4849         0.026173   
    149. D(C   6,C   7,C   2,C   8)      1.8456         0.025962   
    150. D(H  21,C   7,C   2,C   3)      1.2800         0.025962   
    151. D(H  21,C   7,C   2,C   8)   -179.7437         0.025962   
    152. D(C   6,C   7,C   2,C   3)   -177.1307         0.025962   
    153. D(H  21,C   7,C   6,C  13)   -178.7471         0.026981   
    154. D(H  21,C   7,C   6,C  12)      0.1917         0.026981   
    155. D(C   2,C   7,C   6,C  13)     -0.3483         0.026981   
    156. D(C   2,C   7,C   6,C  12)    178.5905         0.026981   
    157. D(C  15,C   8,C   2,C   7)     -2.1699         0.023955   
    158. D(O   0,C   8,C   2,C   7)    178.2836         0.023955   
    159. D(C  15,C   8,C   2,C   3)    176.7781         0.023955   
    160. D(C  15,C   8,O   0,H  32)    150.9888         0.028692   
    161. D(O   0,C   8,C   2,C   3)     -2.7684         0.023955   
    162. D(C   2,C   8,O   0,H  32)    -29.4542         0.028692   
    163. D(H  22,C   9,C   3,C   5)   -179.9015         0.025757   
    164. D(H  22,C   9,C   3,C   2)      1.9706         0.025757   
    165. D(C  14,C   9,C   3,C   5)      0.8471         0.025757   
    166. D(C  14,C   9,C   3,C   2)   -177.2807         0.025757   
    167. D(C   4,C  10,O   1,H  33)     30.2037         0.027680   
    168. D(C  14,C  10,C   4,C  11)   -177.6239         0.025075   
    169. D(C  14,C  10,C   4,C   5)      1.1932         0.025075   
    170. D(O   1,C  10,C   4,C  11)     -0.7197         0.025075   
    171. D(O   1,C  10,C   4,C   5)    178.0973         0.025075   
    172. D(C  14,C  10,O   1,H  38)    101.8166         0.027680   
    173. D(C  14,C  10,O   1,H  33)   -152.8048         0.027680   
    174. D(C   4,C  10,O   1,H  38)    -75.1749         0.027680   
    175. D(H  24,C  11,C   4,C   5)     -0.7634         0.011879   
    176. D(H  23,C  11,C   4,C  10)     61.7517         0.011879   
    177. D(H  23,C  11,C   4,C   5)   -117.0321         0.011879   
    178. D(C  16,C  11,C   4,C  10)    -61.0050         0.011879   
    179. D(C  16,C  11,C   4,C   5)    120.2112         0.011879   
    180. D(H  26,C  12,C   6,C   7)    175.1755         0.011606   
    181. D(H  25,C  12,C   6,C  13)    110.4233         0.011606   
    182. D(H  25,C  12,C   6,C   7)    -68.4755         0.011606   
    183. D(C  17,C  12,C   6,C  13)   -127.1870         0.011606   
    184. D(C  17,C  12,C   6,C   7)     53.9142         0.011606   
    185. D(H  27,C  13,C   6,C  12)      0.8654         0.026530   
    186. D(H  27,C  13,C   6,C   7)    179.7937         0.026530   
    187. D(C  15,C  13,C   6,C   7)     -0.8333         0.026530   
    188. D(C  15,C  13,C   6,C  12)   -179.7617         0.026530   
    189. D(H  28,C  14,C  10,C   4)   -179.7081         0.027332   
    190. D(C   9,C  14,C  10,C   4)     -0.0108         0.027332   
    191. D(C   9,C  14,C  10,O   1)   -177.0535         0.027332   
    192. D(H  28,C  14,C   9,H  22)     -0.5979         0.028085   
    193. D(H  28,C  14,C   9,C   3)    178.6527         0.028085   
    194. D(H  28,C  14,C  10,O   1)      3.2493         0.027332   
    195. D(C  10,C  14,C   9,H  22)    179.7116         0.028085   
    196. D(C  10,C  14,C   9,C   3)     -1.0379         0.028085   
    197. D(H  29,C  15,C   8,O   0)     -0.6510         0.026683   
    198. D(C  13,C  15,C   8,C   2)      1.0657         0.026683   
    199. D(C  13,C  15,C   8,O   0)   -179.3593         0.026683   
    200. D(H  29,C  15,C  13,H  27)      1.1777         0.027879   
    201. D(H  29,C  15,C  13,C   6)   -178.1968         0.027879   
    202. D(C   8,C  15,C  13,H  27)    179.8471         0.027879   
    203. D(C   8,C  15,C  13,C   6)      0.4726         0.027879   
    204. D(H  29,C  15,C   8,C   2)    179.7740         0.026683   
    205. D(H  30,C  16,C  11,H  23)   -179.2409         0.012524   
    206. D(H  30,C  16,C  11,C   4)    -55.9273         0.012524   
    207. D(C  18,C  16,C  11,H  24)   -116.8484         0.012524   
    208. D(C  18,C  16,C  11,H  23)     -0.6125         0.012524   
    209. D(C  18,C  16,C  11,C   4)    122.7012         0.012524   
    210. D(H  31,C  17,C  12,H  25)   -177.7658         0.012834   
    211. D(H  31,C  17,C  12,C   6)     59.2744         0.012834   
    212. D(C  19,C  17,C  12,H  26)    119.6909         0.012834   
    213. D(C  19,C  17,C  12,H  25)      3.4205         0.012834   
    214. D(C  19,C  17,C  12,C   6)   -119.5393         0.012834   
    215. D(H  35,C  18,C  16,H  30)   -179.5888         0.043661   
    216. D(H  35,C  18,C  16,C  11)      1.8320         0.043661   
    217. D(H  34,C  18,C  16,H  30)     -1.0577         0.043661   
    218. D(H  34,C  18,C  16,C  11)   -179.6369         0.043661   
    219. D(H  37,C  19,C  17,H  31)   -179.4037         0.044600   
    220. D(H  37,C  19,C  17,C  12)     -0.6321         0.044600   
    221. D(H  36,C  19,C  17,H  31)      0.9076         0.044600   
    222. D(H  36,C  19,C  17,C  12)    179.6792         0.044600   
    223. D(O  44,H  32,O   0,C   8)   -105.7369         0.270918   
    224. D(C  42,H  38,O   1,H  33)   -164.5642         0.001504   
    225. D(C  42,H  38,O   1,C  10)    -53.6732         0.001504   
    226. D(H  47,C  41,O  40,C  43)   -107.7217         0.022850   
    227. D(C  42,C  41,O  40,C  43)     10.5503         0.022850   
    228. D(H  39,C  41,O  40,C  43)    134.6359         0.022850   
    229. D(O  45,C  42,C  41,H  47)    103.5773         0.011534   
    230. D(O  45,C  42,C  41,O  40)    -13.2620         0.011534   
    231. D(O  45,C  42,C  41,H  39)   -133.2997         0.011534   
    232. D(H  38,C  42,C  41,H  47)   -139.4615         0.011534   
    233. D(H  38,C  42,C  41,O  40)    103.6992         0.011534   
    234. D(H  38,C  42,C  41,H  39)    -16.3385         0.011534   
    235. D(H  46,C  42,H  38,O   1)   -158.5962         0.135360   
    236. D(O  45,C  42,H  38,O   1)     80.7691         0.135360   
    237. D(C  41,C  42,H  38,O   1)    -32.8984         0.135360   
    238. D(O  45,C  43,O  40,C  41)     -3.4677         0.028155   
    239. D(O  44,C  43,O  40,C  41)    176.8554         0.028155   
    240. D(H  32,O  44,C  43,O  45)   -144.0568         0.117248   
    241. D(H  32,O  44,C  43,O  40)     35.5726         0.117248   
    242. D(C  43,O  44,H  32,O   0)   -154.5209         0.001604   
    243. D(C  42,O  45,C  43,O  44)    173.7595         0.036557   
    244. D(C  42,O  45,C  43,O  40)     -5.9126         0.036557   
    245. D(C  43,O  45,C  42,H  46)    130.9194         0.019149   
    246. D(C  43,O  45,C  42,C  41)     11.8741         0.019149   
    247. D(C  43,O  45,C  42,H  38)   -107.0081         0.019149   
    -----------------------------------------------------------------

Number of atoms                         .... 48
Number of degrees of freedom            .... 247


         *************************************************************
         *                GEOMETRY OPTIMIZATION CYCLE   1            *
         *************************************************************
---------------------------------
CARTESIAN COORDINATES (ANGSTROEM)
---------------------------------
  O      1.652664    0.926164    2.763437
  O     -3.502917   -2.715795    2.123908
  C      1.263982   -0.091857    0.585629
  C      0.007132   -0.757652    0.994754
  C     -2.352022   -1.232268    0.582796
  C     -1.159398   -0.599408    0.247837
  C      2.930795    0.301872   -1.156922
  C      1.729838   -0.245900   -0.720458
  C      2.026003    0.680743    1.479009
  C     -0.040288   -1.592607    2.112817
  C     -2.358957   -2.079069    1.697254
  C     -3.610825   -0.990802   -0.217984
  C      3.408942    0.079785   -2.576868
  C      3.681095    1.035958   -0.242028
  C     -1.208088   -2.254683    2.454165
  C      3.233885    1.227375    1.055890
  C     -4.165175   -2.246909   -0.831501
  C      2.389661    0.472996   -3.605286
  C     -5.391984   -2.718468   -0.629175
  C      1.854543   -0.348263   -4.500035
  H     -1.145895    0.065796   -0.606871
  H      1.139824   -0.838075   -1.409782
  H      0.849103   -1.732842    2.711851
  H     -4.377757   -0.523956    0.409126
  H     -3.379524   -0.275946   -1.011508
  H      3.681597   -0.970083   -2.723976
  H      4.321180    0.664616   -2.730041
  H      4.623741    1.473311   -0.549853
  H     -1.242341   -2.919314    3.307425
  H      3.800242    1.821313    1.760975
  H     -3.478916   -2.800112   -1.466818
  H      2.072117    1.512254   -3.577539
  H      0.685345    0.932196    2.862469
  H     -4.080372   -2.888524    1.364064
  H     -5.733536   -3.633636   -1.095174
  H     -6.106399   -2.189581   -0.006184
  H      1.117406   -0.007828   -5.216393
  H      2.140832   -1.393367   -4.549798
  H     -4.423931   -0.693395    3.080999
  H     -3.247805   -1.497670    5.027831
  O     -1.994386    0.044981    4.566668
  C     -3.273261   -0.417423    4.906265
  C     -4.163324    0.097859    3.780205
  C     -2.068218    0.938667    3.541112
  O     -1.131575    1.522539    3.096106
  O     -3.332860    1.056749    3.108091
  H     -5.048195    0.598370    4.165705
  H     -3.639162    0.134017    6.112725

----------------------------
CARTESIAN COORDINATES (A.U.)
----------------------------
  NO LB      ZA    FRAG     MASS         X           Y           Z
   0 O     8.0000    0    15.999    3.123083    1.750196    5.222139
   1 O     8.0000    0    15.999   -6.619553   -5.132109    4.013604
   2 C     6.0000    0    12.011    2.388580   -0.173584    1.106678
   3 C     6.0000    0    12.011    0.013477   -1.431755    1.879813
   4 C     6.0000    0    12.011   -4.444678   -2.328648    1.101324
   5 C     6.0000    0    12.011   -2.190944   -1.132717    0.468344
   6 C     6.0000    0    12.011    5.538399    0.570456   -2.186266
   7 C     6.0000    0    12.011    3.268920   -0.464684   -1.361469
   8 C     6.0000    0    12.011    3.828591    1.286418    2.794922
   9 C     6.0000    0    12.011   -0.076133   -3.009592    3.992646
  10 C     6.0000    0    12.011   -4.457784   -3.928871    3.207346
  11 C     6.0000    0    12.011   -6.823471   -1.872345   -0.411931
  12 C     6.0000    0    12.011    6.441966    0.150771   -4.869575
  13 C     6.0000    0    12.011    6.956262    1.957677   -0.457366
  14 C     6.0000    0    12.011   -2.282955   -4.260734    4.637701
  15 C     6.0000    0    12.011    6.111158    2.319403    1.995343
  16 C     6.0000    0    12.011   -7.871039   -4.246043   -1.571309
  17 C     6.0000    0    12.011    4.515805    0.893833   -6.813003
  18 C     6.0000    0    12.011  -10.189374   -5.137159   -1.188969
  19 C     6.0000    0    12.011    3.504578   -0.658123   -8.503834
  20 H     1.0000    0     1.008   -2.165427    0.124336   -1.146820
  21 H     1.0000    0     1.008    2.153955   -1.583733   -2.664101
  22 H     1.0000    0     1.008    1.604573   -3.274596    5.124655
  23 H     1.0000    0     1.008   -8.272762   -0.990134    0.773136
  24 H     1.0000    0     1.008   -6.386375   -0.521462   -1.911474
  25 H     1.0000    0     1.008    6.957210   -1.833190   -5.147569
  26 H     1.0000    0     1.008    8.165847    1.255942   -5.159030
  27 H     1.0000    0     1.008    8.737604    2.784155   -1.039072
  28 H     1.0000    0     1.008   -2.347685   -5.516704    6.250128
  29 H     1.0000    0     1.008    7.181417    3.441784    3.327760
  30 H     1.0000    0     1.008   -6.574198   -5.291444   -2.771883
  31 H     1.0000    0     1.008    3.915734    2.857746   -6.760569
  32 H     1.0000    0     1.008    1.295114    1.761595    5.409283
  33 H     1.0000    0     1.008   -7.710786   -5.458519    2.577707
  34 H     1.0000    0     1.008  -10.834813   -6.866576   -2.069580
  35 H     1.0000    0     1.008  -11.539422   -4.137709   -0.011687
  36 H     1.0000    0     1.008    2.111592   -0.014792   -9.857554
  37 H     1.0000    0     1.008    4.045585   -2.633082   -8.597873
  38 H     1.0000    0     1.008   -8.360017   -1.310327    5.822244
  39 H     1.0000    0     1.008   -6.137462   -2.830186    9.501223
  40 O     8.0000    0    15.999   -3.768844    0.085001    8.629752
  41 C     6.0000    0    12.011   -6.185566   -0.788816    9.271497
  42 C     6.0000    0    12.011   -7.867543    0.184927    7.143551
  43 C     6.0000    0    12.011   -3.908365    1.773824    6.691732
  44 O     8.0000    0    15.999   -2.138367    2.877181    5.850793
  45 O     8.0000    0    15.999   -6.298193    1.996966    5.873441
  46 H     1.0000    0     1.008   -9.539706    1.130755    7.872042
  47 H     1.0000    0     1.008   -6.877020    0.253256   11.551377

--------------------------------
INTERNAL COORDINATES (ANGSTROEM)
--------------------------------
 O      0   0   0     0.000000000000     0.00000000     0.00000000
 O      1   0   0     6.344515389207     0.00000000     0.00000000
 C      1   2   0     2.435218230602    62.62495230     0.00000000
 C      3   1   2     1.479979925127    94.38103177     0.77063872
 C      2   1   3     2.429081869646    47.80616810   325.97537717
 C      5   2   1     1.391065003059   146.80690475    23.65739812
 C      3   1   2     2.443311037046   117.48757309   182.18382090
 C      7   3   1     1.390270480819    28.75411647   182.06146136
 C      1   2   3     1.359914602842    91.39160164   358.49621535
 C      4   3   1     1.396232137954   121.28070410   305.95898060
 C      2   1   3     1.376988004862    24.59262324   357.83066651
 C      5   2   1     1.511336863868    92.24115868   206.10601828
 C      7   3   1     1.514659582991   149.35277055   179.68128564
 C      7   3   1     1.392431260866    89.08027516     1.75341403
 C     10   4   3     1.385142609567   120.78442044   182.71929587
 C     14   7   3     1.386083265599   120.94447365   358.99909242
 C     12   5   2     1.503832363905   112.93838587   298.64894473
 C     13   7   3     1.500396957346   112.93517695    55.24431545
 C     17  12   5     1.329798971244   125.04352041   122.70117286
 C     18  13   7     1.327175566430   125.01850145   240.46066778
 H      6   5   2     1.083145495396   118.69182168   182.28339932
 H      8   7   3     1.083491851351   119.07841904   181.60118369
 H     10   4   3     1.081444859086   119.54961200     1.97064356
 H     12   5   2     1.095169915980   110.36380013    61.40563500
 H     12   5   2     1.092794573137   108.23807210   177.67434544
 H     13   7   3     1.094624549156   110.19700792   292.85462494
 H     13   7   3     1.094380553764   108.42088082   176.50568986
 H     14   7   3     1.083796996862   119.65591434   179.62614286
 H     15  10   4     1.082108871241   120.96958531   178.65265911
 H     16  14   7     1.081973862601   121.14034092   181.80315644
 H     17  12   5     1.086559167648   115.53012076   304.07274916
 H     18  13   7     1.087042461484   115.56296061    59.27438412
 H      1   2   3     0.972394342218    37.38847647   123.83457047
 H      2   1   3     0.969873129932   131.68407379   328.31296452
 H     19  17  12     1.082287098415   121.70089307   180.36312625
 H     19  17  12     1.085461710666   121.44876144     1.83198135
 H     20  18  13     1.082790360767   121.73277545   179.67917858
 H     20  18  13     1.084748566212   121.37928468   359.36786232
 H      2   1   3     2.419585087173    77.85667689   231.05572333
 H     39   2   1     2.412526016644    81.66184976   289.10727525
 O     40  39   2     2.040465610415    82.24395659   107.15238179
 C     40  39   2     1.087362998497    64.35313428   145.18577552
 C     39   2   1     1.087605956354   140.46034274   325.82647242
 C     41  40  39     1.362311334759   129.25771063   359.61324591
 O     44  41  40     1.190056978458   124.10423436   204.35237060
 O     44  41  40     1.341928247887   110.59248799    24.02923423
 H     43  39   2     1.087252139238   111.58251097   201.40380487
 H     42  40  39     1.376051485289   107.83780981   132.23938148

---------------------------
INTERNAL COORDINATES (A.U.)
---------------------------
 O      0   0   0     0.000000000000     0.00000000     0.00000000
 O      1   0   0    11.989396538049     0.00000000     0.00000000
 C      1   2   0     4.601895532171    62.62495230     0.00000000
 C      3   1   2     2.796756742191    94.38103177     0.77063872
 C      2   1   3     4.590299490505    47.80616810   325.97537717
 C      5   2   1     2.628731890265   146.80690475    23.65739812
 C      3   1   2     4.617188720003   117.48757309   182.18382090
 C      7   3   1     2.627230460824    28.75411647   182.06146136
 C      1   2   3     2.569866164891    91.39160164   358.49621535
 C      4   3   1     2.638496360113   121.28070410   305.95898060
 C      2   1   3     2.602130218883    24.59262324   357.83066651
 C      5   2   1     2.856012768809    92.24115868   206.10601828
 C      7   3   1     2.862291797972   149.35277055   179.68128564
 C      7   3   1     2.631313743347    89.08027516     1.75341403
 C     10   4   3     2.617540188508   120.78442044   182.71929587
 C     14   7   3     2.619317770793   120.94447365   358.99909242
 C     12   5   2     2.841831319108   112.93838587   298.64894473
 C     13   7   3     2.835339341553   112.93517695    55.24431545
 C     17  12   5     2.512955868821   125.04352041   122.70117286
 C     18  13   7     2.507998352185   125.01850145   240.46066778
 H      6   5   2     2.046848349489   118.69182168   182.28339932
 H      8   7   3     2.047502867388   119.07841904   181.60118369
 H     10   4   3     2.043634612609   119.54961200     1.97064356
 H     12   5   2     2.069571211313   110.36380013    61.40563500
 H     12   5   2     2.065082463864   108.23807210   177.67434544
 H     13   7   3     2.068540617372   110.19700792   292.85462494
 H     13   7   3     2.068079532904   108.42088082   176.50568986
 H     14   7   3     2.048079508835   119.65591434   179.62614286
 H     15  10   4     2.044889413732   120.96958531   178.65265911
 H     16  14   7     2.044634284376   121.14034092   181.80315644
 H     17  12   5     2.053299255156   115.53012076   304.07274916
 H     18  13   7     2.054212548148   115.56296061    59.27438412
 H      1   2   3     1.837559000967    37.38847647   123.83457047
 H      2   1   3     1.832794600221   131.68407379   328.31296452
 H     19  17  12     2.045226214281   121.70089307   180.36312625
 H     19  17  12     2.051225362016   121.44876144     1.83198135
 H     20  18  13     2.046177242299   121.73277545   179.67917858
 H     20  18  13     2.049877714305   121.37928468   359.36786232
 H      2   1   3     4.572353172476    77.85667689   231.05572333
 H     39   2   1     4.559013462417    81.66184976   289.10727525
 O     40  39   2     3.855921189368    82.24395659   107.15238179
 C     40  39   2     2.054818275319    64.35313428   145.18577552
 C     39   2   1     2.055277399130   140.46034274   325.82647242
 C     41  40  39     2.574395331832   129.25771063   359.61324591
 O     44  41  40     2.248881773048   124.10423436   204.35237060
 O     44  41  40     2.535876879879   110.59248799    24.02923423
 H     43  39   2     2.054608781680   111.58251097   201.40380487
 H     42  40  39     2.600360453371   107.83780981   132.23938148

---------------------
BASIS SET INFORMATION
---------------------
There are 3 groups of distinct atoms

 Group   1 Type O   : 11s6p2d1f contracted to 5s3p2d1f pattern {62111/411/11/1}
 Group   2 Type C   : 11s6p2d1f contracted to 5s3p2d1f pattern {62111/411/11/1}
 Group   3 Type H   : 5s1p contracted to 3s1p pattern {311/1}

Atom   0O    basis set group =>   1
Atom   1O    basis set group =>   1
Atom   2C    basis set group =>   2
Atom   3C    basis set group =>   2
Atom   4C    basis set group =>   2
Atom   5C    basis set group =>   2
Atom   6C    basis set group =>   2
Atom   7C    basis set group =>   2
Atom   8C    basis set group =>   2
Atom   9C    basis set group =>   2
Atom  10C    basis set group =>   2
Atom  11C    basis set group =>   2
Atom  12C    basis set group =>   2
Atom  13C    basis set group =>   2
Atom  14C    basis set group =>   2
Atom  15C    basis set group =>   2
Atom  16C    basis set group =>   2
Atom  17C    basis set group =>   2
Atom  18C    basis set group =>   2
Atom  19C    basis set group =>   2
Atom  20H    basis set group =>   3
Atom  21H    basis set group =>   3
Atom  22H    basis set group =>   3
Atom  23H    basis set group =>   3
Atom  24H    basis set group =>   3
Atom  25H    basis set group =>   3
Atom  26H    basis set group =>   3
Atom  27H    basis set group =>   3
Atom  28H    basis set group =>   3
Atom  29H    basis set group =>   3
Atom  30H    basis set group =>   3
Atom  31H    basis set group =>   3
Atom  32H    basis set group =>   3
Atom  33H    basis set group =>   3
Atom  34H    basis set group =>   3
Atom  35H    basis set group =>   3
Atom  36H    basis set group =>   3
Atom  37H    basis set group =>   3
Atom  38H    basis set group =>   3
Atom  39H    basis set group =>   3
Atom  40O    basis set group =>   1
Atom  41C    basis set group =>   2
Atom  42C    basis set group =>   2
Atom  43C    basis set group =>   2
Atom  44O    basis set group =>   1
Atom  45O    basis set group =>   1
Atom  46H    basis set group =>   3
Atom  47H    basis set group =>   3
---------------------------------
AUXILIARY/J BASIS SET INFORMATION
---------------------------------
There are 3 groups of distinct atoms

 Group   1 Type O   : 12s5p4d2f1g contracted to 6s4p3d1f1g pattern {711111/2111/211/2/1}
 Group   2 Type C   : 12s5p4d2f1g contracted to 6s4p3d1f1g pattern {711111/2111/211/2/1}
 Group   3 Type H   : 5s2p1d contracted to 3s1p1d pattern {311/2/1}

Atom   0O    basis set group =>   1
Atom   1O    basis set group =>   1
Atom   2C    basis set group =>   2
Atom   3C    basis set group =>   2
Atom   4C    basis set group =>   2
Atom   5C    basis set group =>   2
Atom   6C    basis set group =>   2
Atom   7C    basis set group =>   2
Atom   8C    basis set group =>   2
Atom   9C    basis set group =>   2
Atom  10C    basis set group =>   2
Atom  11C    basis set group =>   2
Atom  12C    basis set group =>   2
Atom  13C    basis set group =>   2
Atom  14C    basis set group =>   2
Atom  15C    basis set group =>   2
Atom  16C    basis set group =>   2
Atom  17C    basis set group =>   2
Atom  18C    basis set group =>   2
Atom  19C    basis set group =>   2
Atom  20H    basis set group =>   3
Atom  21H    basis set group =>   3
Atom  22H    basis set group =>   3
Atom  23H    basis set group =>   3
Atom  24H    basis set group =>   3
Atom  25H    basis set group =>   3
Atom  26H    basis set group =>   3
Atom  27H    basis set group =>   3
Atom  28H    basis set group =>   3
Atom  29H    basis set group =>   3
Atom  30H    basis set group =>   3
Atom  31H    basis set group =>   3
Atom  32H    basis set group =>   3
Atom  33H    basis set group =>   3
Atom  34H    basis set group =>   3
Atom  35H    basis set group =>   3
Atom  36H    basis set group =>   3
Atom  37H    basis set group =>   3
Atom  38H    basis set group =>   3
Atom  39H    basis set group =>   3
Atom  40O    basis set group =>   1
Atom  41C    basis set group =>   2
Atom  42C    basis set group =>   2
Atom  43C    basis set group =>   2
Atom  44O    basis set group =>   1
Atom  45O    basis set group =>   1
Atom  46H    basis set group =>   3
Atom  47H    basis set group =>   3
--------------------------------------------------------------------------
WARNING: There was an error initializing an OpenFabrics device.

  Local host:   ga00
  Local device: mlx5_0
--------------------------------------------------------------------------


           ************************************************************
           *        Program running with 30 parallel MPI-processes    *
           *              working on a common directory               *
           ************************************************************
------------------------------------------------------------------------------
                             ORCA STARTUP CALCULATIONS
                           -- RI-GTO INTEGRALS CHOSEN --
------------------------------------------------------------------------------
------------------------------------------------------------------------------
                   ___                                                        
                  /   \      - P O W E R E D   B Y -                         
                 /     \                                                     
                 |  |  |   _    _      __       _____    __    __             
                 |  |  |  | |  | |    /  \     |  _  \  |  |  /  |          
                  \  \/   | |  | |   /    \    | | | |  |  | /  /          
                 / \  \   | |__| |  /  /\  \   | |_| |  |  |/  /          
                |  |  |   |  __  | /  /__\  \  |    /   |      \           
                |  |  |   | |  | | |   __   |  |    \   |  |\   \          
                \     /   | |  | | |  |  |  |  | |\  \  |  | \   \       
                 \___/    |_|  |_| |__|  |__|  |_| \__\ |__|  \__/        
                                                                              
                      - O R C A' S   B I G   F R I E N D -                    
                                      &                                       
                       - I N T E G R A L  F E E D E R -                       
                                                                              
 v1 FN, 2020, v2 2021, v3 2022-2024                                           
------------------------------------------------------------------------------


----------------------
SHARK INTEGRAL PACKAGE
----------------------

Number of atoms                             ...     48
Number of basis functions                   ...    938
Number of shells                            ...    374
Maximum angular momentum                    ...      3
Integral batch strategy                     ... SHARK/LIBINT Hybrid
RI-J (if used) integral strategy            ... SPLIT-RIJ (Revised 2003 algorithm where possible)
Printlevel                                  ...      1
Contraction scheme used                     ... SEGMENTED contraction
Prescreening option                         ... SCHWARTZ
   Thresh                                   ... 2.500e-11
   Tcut                                     ... 2.500e-12
   Tpresel                                  ... 2.500e-12 
Coulomb Range Separation                    ... NOT USED
Exchange Range Separation                   ... NOT USED
Multipole approximations                    ... NOT USED
Finite Nucleus Model                        ... NOT USED
CABS basis                                  ... NOT available
Auxiliary Coulomb fitting basis             ... AVAILABLE
   # of basis functions in Aux-J            ...   1516
   # of shells in Aux-J                     ...    500
   Maximum angular momentum in Aux-J        ...      4
Auxiliary J/K fitting basis                 ... NOT available
Auxiliary Correlation fitting basis         ... NOT available
Auxiliary 'external' fitting basis          ... NOT available

Checking pre-screening integrals            ... done (  0.0 sec) Dimension = 374
Check shell pair data                       ... done (  0.0 sec)
Shell pair information
Shell pair cut-off parameter TPreSel        ...   2.5e-12
Total number of shell pairs                 ...     70125
Shell pairs after pre-screening             ...     45630
Total number of primitive shell pairs       ...    213516
Primitive shell pairs kept                  ...     90438
          la=0 lb=0:  12103 shell pairs
          la=1 lb=0:  13366 shell pairs
          la=1 lb=1:   3698 shell pairs
          la=2 lb=0:   6354 shell pairs
          la=2 lb=1:   3567 shell pairs
          la=2 lb=2:    879 shell pairs
          la=3 lb=0:   2946 shell pairs
          la=3 lb=1:   1716 shell pairs
          la=3 lb=2:    798 shell pairs
          la=3 lb=3:    203 shell pairs

Calculating one electron integrals          ... done (  0.1 sec)
Calculating RI/J V-Matrix + Cholesky decomp.... done (  0.1 sec)
Calculating Nuclear repulsion               ... done (  0.0 sec) ENN=   2325.609530235150 Eh

Diagonalization of the overlap matrix:
Smallest eigenvalue                        ... 5.230e-06
Time for diagonalization                   ...    0.135 sec
Threshold for overlap eigenvalues          ... 1.000e-07
Number of eigenvalues below threshold      ... 0
Time for construction of square roots      ...    0.062 sec
Total time needed                          ...    0.204 sec

-------------------
DFT GRID GENERATION
-------------------

General Integration Accuracy     IntAcc      ... 4.388
Radial Grid Type                 RadialGrid  ... OptM3 with GC (2021)
Angular Grid (max. ang.)         AngularGrid ... 4 (Lebedev-302)
Angular grid pruning method      GridPruning ... 4 (adaptive)
Weight generation scheme         WeightScheme... mBecke (2022)
Basis function cutoff            BFCut       ... 1.0000e-11
Integration weight cutoff        WCut        ... 1.0000e-14
Partially contracted basis set               ... off
Rotationally invariant grid construction     ... off
Angular grids for H and He will be reduced by one unit

Total number of grid points                  ...   225266
Total number of batches                      ...     3547
Average number of points per batch           ...       63
Average number of grid points per atom       ...     4693

--------------------
COSX GRID GENERATION
--------------------

GRIDX 1
-------
General Integration Accuracy     IntAcc      ... 3.816
Radial Grid Type                 RadialGrid  ... OptM3 with GC (2021)
Angular Grid (max. ang.)         AngularGrid ... 1 (Lebedev-50)
Angular grid pruning method      GridPruning ... 4 (adaptive)
Weight generation scheme         WeightScheme... mBecke (2022)
Basis function cutoff            BFCut       ... 1.0000e-11
Integration weight cutoff        WCut        ... 1.0000e-14
Partially contracted basis set               ... on
Rotationally invariant grid construction     ... off
Angular grids for H and He will be reduced by one unit

Total number of grid points                  ...    28555
Total number of batches                      ...      253
Average number of points per batch           ...      112
Average number of grid points per atom       ...      595
UseSFitting                                  ... on

GRIDX 2
-------
General Integration Accuracy     IntAcc      ... 4.020
Radial Grid Type                 RadialGrid  ... OptM3 with GC (2021)
Angular Grid (max. ang.)         AngularGrid ... 2 (Lebedev-110)
Angular grid pruning method      GridPruning ... 4 (adaptive)
Weight generation scheme         WeightScheme... mBecke (2022)
Basis function cutoff            BFCut       ... 1.0000e-11
Integration weight cutoff        WCut        ... 1.0000e-14
Partially contracted basis set               ... on
Rotationally invariant grid construction     ... off
Angular grids for H and He will be reduced by one unit

Total number of grid points                  ...    61589
Total number of batches                      ...      508
Average number of points per batch           ...      121
Average number of grid points per atom       ...     1283
UseSFitting                                  ... on

GRIDX 3
-------
General Integration Accuracy     IntAcc      ... 4.338
Radial Grid Type                 RadialGrid  ... OptM3 with GC (2021)
Angular Grid (max. ang.)         AngularGrid ... 3 (Lebedev-194)
Angular grid pruning method      GridPruning ... 4 (adaptive)
Weight generation scheme         WeightScheme... mBecke (2022)
Basis function cutoff            BFCut       ... 1.0000e-11
Integration weight cutoff        WCut        ... 1.0000e-14
Partially contracted basis set               ... on
Rotationally invariant grid construction     ... off
Angular grids for H and He will be reduced by one unit

Total number of grid points                  ...   134449
Total number of batches                      ...     1071
Average number of points per batch           ...      125
Average number of grid points per atom       ...     2801
UseSFitting                                  ... on
Initializing property integral containers    ... done (  0.0 sec)

SHARK setup successfully completed in   3.1 seconds

Maximum memory used throughout the entire STARTUP-calculation: 98.3 MB
[ga00:98080] 29 more processes have sent help message help-mpi-btl-openib.txt / error in device init
[ga00:98080] Set MCA parameter "orte_base_help_aggregate" to 0 to see all help / error messages
--------------------------------------------------------------------------
WARNING: There was an error initializing an OpenFabrics device.

  Local host:   ga00
  Local device: mlx5_0
--------------------------------------------------------------------------


           ************************************************************
           *        Program running with 30 parallel MPI-processes    *
           *              working on a common directory               *
           ************************************************************
-------------------------------------------------------------------------------
                                 ORCA GUESS
                   Start orbitals & Density for SCF / CASSCF
-------------------------------------------------------------------------------

------------
SCF SETTINGS
------------
Hamiltonian:
 Density Functional     Method          .... DFT(GTOs)
 Exchange Functional    Exchange        .... B88
   X-Alpha parameter    XAlpha          ....  0.666667
   Becke's b parameter  XBeta           ....  0.004200
 Correlation Functional Correlation     .... LYP
 LDA part of GGA corr.  LDAOpt          .... VWN-5
 Gradients option       PostSCFGGA      .... off
 Hybrid DFT is turned on
   Fraction HF Exchange ScalHFX         ....  0.200000
   Scaling of DF-GGA-X  ScalDFX         ....  0.720000
   Scaling of DF-GGA-C  ScalDFC         ....  0.810000
   Scaling of DF-LDA-C  ScalLDAC        ....  1.000000
   Perturbative correction              ....  0.000000
   NL short-range parameter             ....  4.800000
 RI-approximation to the Coulomb term is turned on
   Number of AuxJ basis functions       .... 1516
   RIJ-COSX (HFX calculated with COS-X)).... on


General Settings:
 Integral files         IntName         .... honokiol3_EC
 Hartree-Fock type      HFTyp           .... RHF
 Total Charge           Charge          ....    0
 Multiplicity           Mult            ....    1
 Number of Electrons    NEL             ....  188
 Basis Dimension        Dim             ....  938
 Nuclear Repulsion      ENuc            ....   2325.6095302352 Eh

Convergence Acceleration:
 AO-DIIS                CNVDIIS         .... on
   Start iteration      DIISMaxIt       ....    12
   Startup error        DIISStart       ....  0.200000
   # of expansion vecs  DIISMaxEq       ....     5
   Bias factor          DIISBfac        ....   1.050
   Max. coefficient     DIISMaxC        ....  10.000
 MO-DIIS                CNVKDIIS        .... off
 Trust-Rad. Augm. Hess. CNVTRAH         .... auto
   Auto Start mean grad. ratio tolernc. ....  1.125000
   Auto Start start iteration           ....    50
   Auto Start num. interpolation iter.  ....    10
   Max. Number of Micro iterations      ....    24
   Max. Number of Macro iterations      .... Maxiter - #DIIS iter
   Number of Davidson start vectors     ....     2
   Converg. threshold    (grad. norm)   ....   1.000e-05
   Grad. Scal. Fac. for Micro threshold ....   0.100
   Minimum threshold for Micro iter.    ....   1.000e-02
   NR start threshold (gradient norm)   ....   1.000e-04
   Initial trust radius                 ....   0.400
   Minimum AH scaling param. (alpha)    ....   1.000
   Maximum AH scaling param. (alpha)    .... 1000.000
   Quad. conv. algorithm                .... NR
   White noise on init. David. guess    .... on
   Maximum white noise                  ....   0.010
   Pseudo random numbers                .... off
   Inactive MOs                         .... canonical
   Orbital update algorithm             .... Taylor
   Preconditioner                       .... Diag
   Full preconditioner red. dimension   ....   250
 SOSCF                  CNVSOSCF        .... on
   Start iteration      SOSCFMaxIt      ....   150
   Startup grad/error   SOSCFStart      ....  0.003300
   Hessian update       SOSCFHessUp     .... L-BFGS
 Level Shifting         CNVShift        .... on
   Level shift para.    LevelShift      ....    0.2500
   Turn off err/grad.   ShiftErr        ....    0.0010
 Zerner damping         CNVZerner       .... off
 Static damping         CNVDamp         .... on
   Fraction old density DampFac         ....    0.7000
   Max. Damping (<1)    DampMax         ....    0.9800
   Min. Damping (>=0)   DampMin         ....    0.0000
   Turn off err/grad.   DampErr         ....    0.1000

SCF Procedure:
 Maximum # iterations   MaxIter         ....   125
 SCF integral mode      SCFMode         .... Direct
   Integral package                     .... SHARK and LIBINT hybrid scheme
 Reset frequency        DirectResetFreq ....    20
 Integral Threshold     Thresh          ....  2.500e-11 Eh
 Primitive CutOff       TCut            ....  2.500e-12 Eh

Convergence Tolerance:
 Convergence Check Mode ConvCheckMode   .... Total+1el-Energy
 Convergence forced     ConvForced      .... 0
 Energy Change          TolE            ....  1.000e-08 Eh
 1-El. energy change                    ....  1.000e-05 Eh
 Orbital Gradient       TolG            ....  1.000e-05
 Orbital Rotation angle TolX            ....  1.000e-05
 DIIS Error             TolErr          ....  5.000e-07

------------------------------
INITIAL GUESS: MODEL POTENTIAL
------------------------------
Loading Hartree-Fock densities                     ... done
Calculating cut-offs                               ... done
Initializing the effective Hamiltonian             ... done
Setting up the integral package (SHARK)            ... done
Starting the Coulomb interaction                   ... done (   0.2 sec)
Making the grid                                    ... done (   0.2 sec)
Mapping shells                                     ... done
Starting the XC term evaluation                    ... done (   0.1 sec)
  promolecular density results
     # of electrons  =    187.990696428
     EX              =   -155.545672165
     EC              =     -6.406541131
     EX+EC           =   -161.952213296
Transforming the Hamiltonian                       ... done (   0.1 sec)
Diagonalizing the Hamiltonian                      ... done (   0.1 sec)
Back transforming the eigenvectors                 ... done (   0.0 sec)
Now organizing SCF variables                       ... done
                      ------------------
                      INITIAL GUESS DONE (   0.8 sec)
                      ------------------
             **** ENERGY FILE WAS UPDATED (honokiol3_EC.en.tmp) ****
Finished Guess after   1.7 sec
Maximum memory used throughout the entire GUESS-calculation: 81.2 MB
[ga00:98262] 29 more processes have sent help message help-mpi-btl-openib.txt / error in device init
[ga00:98262] Set MCA parameter "orte_base_help_aggregate" to 0 to see all help / error messages
--------------------------------------------------------------------------
WARNING: There was an error initializing an OpenFabrics device.

  Local host:   ga00
  Local device: mlx5_0
--------------------------------------------------------------------------


           ************************************************************
           *        Program running with 30 parallel MPI-processes    *
           *              working on a common directory               *
           ************************************************************

-------------------------------------------------------------------------------------------
                                      ORCA LEAN-SCF
                              memory conserving SCF solver
-------------------------------------------------------------------------------------------

----------------------------------------D-I-I-S--------------------------------------------
Iteration    Energy (Eh)           Delta-E    RMSDP     MaxDP     DIISErr   Damp  Time(sec)
-------------------------------------------------------------------------------------------
               ***  Starting incremental Fock matrix formation  ***
[ga00:98411] 29 more processes have sent help message help-mpi-btl-openib.txt / error in device init
[ga00:98411] Set MCA parameter "orte_base_help_aggregate" to 0 to see all help / error messages
    1    -1188.5869590502720712     0.00e+00  1.51e-03  1.79e-01  2.87e-01  0.700   4.5
    2    -1188.9221923998056809    -3.35e-01  1.42e-03  2.07e-01  1.04e-01  0.700   3.0
                               ***Turning on AO-DIIS***
    3    -1189.0583832147990506    -1.36e-01  5.15e-04  6.72e-02  3.79e-02  0.700   2.7
    4    -1189.1395740171069519    -8.12e-02  6.79e-04  4.46e-02  1.94e-02  0.000   2.6
    5    -1189.3163916230168979    -1.77e-01  3.70e-04  5.96e-02  5.29e-03  0.000   2.7
                              *** Initializing SOSCF ***
---------------------------------------S-O-S-C-F--------------------------------------
Iteration    Energy (Eh)           Delta-E    RMSDP     MaxDP     MaxGrad    Time(sec)
--------------------------------------------------------------------------------------
    6    -1189.3172743118852850    -8.83e-04  1.27e-04  1.95e-02  1.61e-03     2.7
               *** Restarting incremental Fock matrix formation ***
    7    -1189.3172700419881949     4.27e-06  9.05e-05  1.05e-02  2.36e-04     4.3
    8    -1189.3172628895458729     7.15e-06  1.58e-05  1.27e-03  5.43e-04     3.2
    9    -1189.3172778550406292    -1.50e-05  1.20e-05  7.82e-04  6.62e-05     3.3
   10    -1189.3172775586067473     2.96e-07  3.65e-06  3.66e-04  7.09e-05     2.7
   11    -1189.3172781628495613    -6.04e-07  2.84e-06  2.23e-04  1.20e-05     2.4
   12    -1189.3172781460120859     1.68e-08  1.32e-06  1.77e-04  1.80e-05     2.2
   13    -1189.3172781242506062     2.18e-08  1.60e-06  1.58e-04  3.04e-06     2.0
   14    -1189.3172781315315660    -7.28e-09  1.11e-06  1.15e-04  5.32e-06     1.9
                 **** Energy Check signals convergence ****

               *****************************************************
               *                     SUCCESS                       *
               *           SCF CONVERGED AFTER  14 CYCLES          *
               *****************************************************

Recomputing exchange energy using gridx3       ... done (    6.423 sec)
Old exchange energy                            :    -31.587303772 Eh
New exchange energy                            :    -31.587325419 Eh
Exchange energy change after final integration :     -0.000021646 Eh
Total energy after final integration           :  -1189.317299778 Eh
             **** ENERGY FILE WAS UPDATED (honokiol3_EC.en.tmp) ****

----------------
TOTAL SCF ENERGY
----------------

Total Energy       :      -1189.31729977792361 Eh          -32362.96903 eV

Components:
Nuclear Repulsion  :       2325.60953023515049 Eh           63283.05257 eV
Electronic Energy  :      -3514.92680836668205 Eh          -95646.02101 eV
One Electron Energy:      -6242.30725470192010 Eh         -169861.81601 eV
Two Electron Energy:       2727.38044633523805 Eh           74215.79500 eV

Virial components:
Potential Energy   :      -2373.44143492550165 Eh          -64584.62486 eV
Kinetic Energy     :       1184.12413514757804 Eh           32221.65583 eV
Virial Ratio       :          2.00438565896615

DFT components:
N(Alpha)           :       94.000063494871 electrons
N(Beta)            :       94.000063494871 electrons
N(Total)           :      188.000126989743 electrons
E(X)               :     -125.563378338957 Eh       
E(C)               :       -7.551091053642 Eh       
E(XC)              :     -133.114469392599 Eh       

---------------
SCF CONVERGENCE
---------------

  Last Energy change         ...    7.2810e-09  Tolerance :   1.0000e-08
  Last MAX-Density change    ...    1.1509e-04  Tolerance :   1.0000e-07
  Last RMS-Density change    ...    1.1143e-06  Tolerance :   5.0000e-09
  Last DIIS Error            ...    1.6057e-03  Tolerance :   5.0000e-07
  Last Orbital Gradient      ...    5.3213e-06  Tolerance :   1.0000e-05
  Last Orbital Rotation      ...    7.0746e-06  Tolerance :   1.0000e-05


----------------
ORBITAL ENERGIES
----------------

  NO   OCC          E(Eh)            E(eV) 
   0   2.0000     -19.200086      -522.4609 
   1   2.0000     -19.197617      -522.3937 
   2   2.0000     -19.157869      -521.3121 
   3   2.0000     -19.131353      -520.5906 
   4   2.0000     -19.122323      -520.3449 
   5   2.0000     -10.361731      -281.9570 
   6   2.0000     -10.278747      -279.6989 
   7   2.0000     -10.258439      -279.1463 
   8   2.0000     -10.234784      -278.5026 
   9   2.0000     -10.216119      -277.9947 
  10   2.0000     -10.200149      -277.5602 
  11   2.0000     -10.194325      -277.4017 
  12   2.0000     -10.187054      -277.2038 
  13   2.0000     -10.186809      -277.1972 
  14   2.0000     -10.177587      -276.9462 
  15   2.0000     -10.173983      -276.8481 
  16   2.0000     -10.172504      -276.8079 
  17   2.0000     -10.171724      -276.7867 
  18   2.0000     -10.168744      -276.7056 
  19   2.0000     -10.168627      -276.7024 
  20   2.0000     -10.167704      -276.6773 
  21   2.0000     -10.163134      -276.5529 
  22   2.0000     -10.159147      -276.4444 
  23   2.0000     -10.158618      -276.4301 
  24   2.0000     -10.155931      -276.3569 
  25   2.0000     -10.152565      -276.2653 
  26   2.0000      -1.178855       -32.0783 
  27   2.0000      -1.067322       -29.0433 
  28   2.0000      -1.063274       -28.9332 
  29   2.0000      -1.062708       -28.9178 
  30   2.0000      -1.032090       -28.0846 
  31   2.0000      -0.868772       -23.6405 
  32   2.0000      -0.846304       -23.0291 
  33   2.0000      -0.823017       -22.3954 
  34   2.0000      -0.793872       -21.6023 
  35   2.0000      -0.791555       -21.5393 
  36   2.0000      -0.771347       -20.9894 
  37   2.0000      -0.762663       -20.7531 
  38   2.0000      -0.734087       -19.9755 
  39   2.0000      -0.717352       -19.5201 
  40   2.0000      -0.695597       -18.9282 
  41   2.0000      -0.689442       -18.7607 
  42   2.0000      -0.668735       -18.1972 
  43   2.0000      -0.628580       -17.1045 
  44   2.0000      -0.626403       -17.0453 
  45   2.0000      -0.617943       -16.8151 
  46   2.0000      -0.590194       -16.0600 
  47   2.0000      -0.582799       -15.8588 
  48   2.0000      -0.576505       -15.6875 
  49   2.0000      -0.551320       -15.0022 
  50   2.0000      -0.550210       -14.9720 
  51   2.0000      -0.546006       -14.8576 
  52   2.0000      -0.538409       -14.6509 
  53   2.0000      -0.527511       -14.3543 
  54   2.0000      -0.514305       -13.9949 
  55   2.0000      -0.497512       -13.5380 
  56   2.0000      -0.487989       -13.2789 
  57   2.0000      -0.479768       -13.0551 
  58   2.0000      -0.471472       -12.8294 
  59   2.0000      -0.465219       -12.6593 
  60   2.0000      -0.460671       -12.5355 
  61   2.0000      -0.458157       -12.4671 
  62   2.0000      -0.454804       -12.3758 
  63   2.0000      -0.443252       -12.0615 
  64   2.0000      -0.432660       -11.7733 
  65   2.0000      -0.428762       -11.6672 
  66   2.0000      -0.427409       -11.6304 
  67   2.0000      -0.422657       -11.5011 
  68   2.0000      -0.418844       -11.3973 
  69   2.0000      -0.415550       -11.3077 
  70   2.0000      -0.402486       -10.9522 
  71   2.0000      -0.399745       -10.8776 
  72   2.0000      -0.398247       -10.8369 
  73   2.0000      -0.391688       -10.6584 
  74   2.0000      -0.391182       -10.6446 
  75   2.0000      -0.378681       -10.3044 
  76   2.0000      -0.375292       -10.2122 
  77   2.0000      -0.367479        -9.9996 
  78   2.0000      -0.359184        -9.7739 
  79   2.0000      -0.353045        -9.6068 
  80   2.0000      -0.348173        -9.4743 
  81   2.0000      -0.341068        -9.2809 
  82   2.0000      -0.334766        -9.1094 
  83   2.0000      -0.332605        -9.0507 
  84   2.0000      -0.324789        -8.8379 
  85   2.0000      -0.321051        -8.7363 
  86   2.0000      -0.310969        -8.4619 
  87   2.0000      -0.304327        -8.2811 
  88   2.0000      -0.289539        -7.8788 
  89   2.0000      -0.260336        -7.0841 
  90   2.0000      -0.255766        -6.9597 
  91   2.0000      -0.254766        -6.9325 
  92   2.0000      -0.225108        -6.1255 
  93   2.0000      -0.203548        -5.5388 
  94   0.0000      -0.030255        -0.8233 
  95   0.0000      -0.021247        -0.5782 
  96   0.0000      -0.007034        -0.1914 
  97   0.0000      -0.001444        -0.0393 
  98   0.0000       0.006358         0.1730 
  99   0.0000       0.007770         0.2114 
 100   0.0000       0.020252         0.5511 
 101   0.0000       0.024112         0.6561 
 102   0.0000       0.029888         0.8133 
 103   0.0000       0.033111         0.9010 
 104   0.0000       0.049528         1.3477 
*Only the first 10 virtual orbitals were printed.

                    ********************************
                    * MULLIKEN POPULATION ANALYSIS *
                    ********************************

-----------------------
MULLIKEN ATOMIC CHARGES
-----------------------
   0 O :   -0.420735
   1 O :   -0.437969
   2 C :    0.120568
   3 C :    0.015142
   4 C :    0.084303
   5 C :   -0.208555
   6 C :    0.098821
   7 C :   -0.254613
   8 C :    0.233675
   9 C :   -0.123887
  10 C :    0.248859
  11 C :   -0.250407
  12 C :   -0.174094
  13 C :   -0.138750
  14 C :   -0.261078
  15 C :   -0.229592
  16 C :   -0.124916
  17 C :   -0.089025
  18 C :   -0.285521
  19 C :   -0.266892
  20 H :    0.119303
  21 H :    0.129320
  22 H :    0.117792
  23 H :    0.122471
  24 H :    0.120650
  25 H :    0.094435
  26 H :    0.104161
  27 H :    0.090170
  28 H :    0.101337
  29 H :    0.101203
  30 H :    0.120460
  31 H :    0.100736
  32 H :    0.332255
  33 H :    0.327119
  34 H :    0.126199
  35 H :    0.122279
  36 H :    0.106757
  37 H :    0.100555
  38 H :    0.114206
[...]
  H     -4.386102   -0.520594    0.415557
  H     -3.388172   -0.269919   -1.005429
  H      3.678669   -0.985752   -2.704507
  H      4.326830    0.645823   -2.716022
  H      4.612800    1.481825   -0.543943
  H     -1.254913   -2.904353    3.319629
  H      3.777201    1.848151    1.759548
  H     -3.489915   -2.792547   -1.466902
  H      2.084511    1.499581   -3.576952
  H      0.658126    0.961611    2.856122
  H     -4.089492   -2.878750    1.363151
  H     -5.745472   -3.624443   -1.098323
  H     -6.116959   -2.182808   -0.005323
  H      1.132303   -0.023069   -5.214967
  H      2.147367   -1.409864   -4.538202
  H     -4.424903   -0.684129    3.101105
  H     -3.198294   -1.513970    4.948128
  O     -1.953921    0.084964    4.585145
  C     -3.251089   -0.427856    4.929053
  C     -4.153072    0.098171    3.806023
  C     -2.048075    0.937903    3.550429
  O     -1.123985    1.528428    3.074800
  O     -3.320204    1.053536    3.125770
  H     -5.041017    0.613469    4.165894
  H     -3.518923   -0.044696    5.913123

----------------------------
CARTESIAN COORDINATES (A.U.)
----------------------------
  NO LB      ZA    FRAG     MASS         X           Y           Z
   0 O     8.0000    0    15.999    3.076047    1.805046    5.215318
   1 O     8.0000    0    15.999   -6.633442   -5.135630    4.013220
   2 C     6.0000    0    12.011    2.368128   -0.160652    1.116326
   3 C     6.0000    0    12.011   -0.006525   -1.419884    1.889820
   4 C     6.0000    0    12.011   -4.462075   -2.322799    1.108549
   5 C     6.0000    0    12.011   -2.208812   -1.127270    0.474716
   6 C     6.0000    0    12.011    5.530560    0.564894   -2.169324
   7 C     6.0000    0    12.011    3.260967   -0.470946   -1.344711
   8 C     6.0000    0    12.011    3.794264    1.320957    2.798723
   9 C     6.0000    0    12.011   -0.098740   -2.987684    4.009439
  10 C     6.0000    0    12.011   -4.476348   -3.919698    3.217007
  11 C     6.0000    0    12.011   -6.841034   -1.863877   -0.403319
  12 C     6.0000    0    12.011    6.445730    0.125337   -4.845388
  13 C     6.0000    0    12.011    6.935652    1.972754   -0.446932
  14 C     6.0000    0    12.011   -2.304586   -4.240537    4.654685
  15 C     6.0000    0    12.011    6.077605    2.353806    1.998369
  16 C     6.0000    0    12.011   -7.891093   -4.232988   -1.569504
  17 C     6.0000    0    12.011    4.532761    0.867650   -6.802169
  18 C     6.0000    0    12.011  -10.210660   -5.122451   -1.190434
  19 C     6.0000    0    12.011    3.524243   -0.686812   -8.492360
  20 H     1.0000    0     1.008   -2.182535    0.127178   -1.142500
  21 H     1.0000    0     1.008    2.155269   -1.605542   -2.641907
  22 H     1.0000    0     1.008    1.579024   -3.242319    5.148210
  23 H     1.0000    0     1.008   -8.288532   -0.983780    0.785289
  24 H     1.0000    0     1.008   -6.402717   -0.510073   -1.899985
  25 H     1.0000    0     1.008    6.951678   -1.862801   -5.110777
  26 H     1.0000    0     1.008    8.176524    1.220429   -5.132538
  27 H     1.0000    0     1.008    8.716928    2.800243   -1.027904
  28 H     1.0000    0     1.008   -2.371441   -5.488432    6.273190
  29 H     1.0000    0     1.008    7.137875    3.492499    3.325063
  30 H     1.0000    0     1.008   -6.594984   -5.277150   -2.772042
  31 H     1.0000    0     1.008    3.939155    2.833797   -6.759460
  32 H     1.0000    0     1.008    1.243677    1.817182    5.397288
  33 H     1.0000    0     1.008   -7.728019   -5.440049    2.575982
  34 H     1.0000    0     1.008  -10.857368   -6.849205   -2.075530
  35 H     1.0000    0     1.008  -11.559377   -4.124909   -0.010059
  36 H     1.0000    0     1.008    2.139742   -0.043594   -9.854859
  37 H     1.0000    0     1.008    4.057935   -2.664257   -8.575958
  38 H     1.0000    0     1.008   -8.361855   -1.292816    5.860239
  39 H     1.0000    0     1.008   -6.043899   -2.860989    9.350606
  40 O     8.0000    0    15.999   -3.692376    0.160559    8.664668
  41 C     6.0000    0    12.011   -6.143668   -0.808530    9.314560
  42 C     6.0000    0    12.011   -7.848169    0.185516    7.192341
  43 C     6.0000    0    12.011   -3.870300    1.772380    6.709338
  44 O     8.0000    0    15.999   -2.124024    2.888310    5.810529
  45 O     8.0000    0    15.999   -6.274276    1.990895    5.906850
  46 H     1.0000    0     1.008   -9.526141    1.159288    7.872399
  47 H     1.0000    0     1.008   -6.649801   -0.084462   11.174183

--------------------------------
INTERNAL COORDINATES (ANGSTROEM)
--------------------------------
 O      0   0   0     0.000000000000     0.00000000     0.00000000
 O      1   0   0     6.347748912527     0.00000000     0.00000000
 C      1   2   0     2.434609241088    62.54553285     0.00000000
 C      3   1   2     1.480082512672    94.39357356     0.81394226
 C      2   1   3     2.428684893318    47.61255872   325.48019199
 C      5   2   1     1.390863417235   146.82357528    24.19106752
 C      3   1   2     2.443566699842   117.47925380   182.19189458
 C      7   3   1     1.390438294390    28.74099997   182.09105326
 C      1   2   3     1.358461404140    91.31861715   358.47668798
 C      4   3   1     1.395993469648   121.29500971   305.63172960
 C      2   1   3     1.376420328610    24.34526912   357.41219129
 C      5   2   1     1.511243931721    92.25953065   206.42516872
 C      7   3   1     1.514599443453   149.32998081   179.80890656
 C      7   3   1     1.392348314888    89.08415447     1.79320159
 C     10   4   3     1.385165340128   120.79516328   182.73625556
 C     14   7   3     1.386094903884   120.93223362   358.98840189
 C     12   5   2     1.503766724516   113.02275781   298.68848603
 C     13   7   3     1.500427196128   112.91217242    55.70634731
 C     17  12   5     1.329828610980   125.04705243   122.74673478
 C     18  13   7     1.327191386924   125.03788248   240.34167028
 H      6   5   2     1.083162279816   118.70509471   181.87454682
 H      8   7   3     1.083533827751   119.08193410   181.57615154
 H     10   4   3     1.081456425647   119.54251360     2.04679340
 H     12   5   2     1.095103838141   110.30025173    61.47989811
 H     12   5   2     1.092839613045   108.19214611   177.74065261
 H     13   7   3     1.094655821710   110.22806683   293.33821778
 H     13   7   3     1.094428865994   108.42623484   176.94758225
 H     14   7   3     1.083872094074   119.66403464   179.61874753
 H     15  10   4     1.082069663963   120.98136541   178.67689636
 H     16  14   7     1.082023616936   121.12294504   181.81658186
 H     17  12   5     1.086589300382   115.53348116   304.13993393
 H     18  13   7     1.087060036970   115.54274569    59.10819469
 H      1   2   3     0.974438858924    37.65241186   123.95472041
 H      2   1   3     0.969481765196   131.17478533   326.71077373
 H     19  17  12     1.082333361230   121.69452031   180.39117715
 H     19  17  12     1.085446800965   121.43865223     1.80126876
 H     20  18  13     1.082808174113   121.73444349   179.62444044
 H     20  18  13     1.084762291462   121.37780220   359.36536096
 H      2   1   3     2.434566579361    77.32415756   230.07849338
 H     39   2   1     2.367425088816    79.96687874   290.27925722
 O     40  39   2     2.058351737216    84.45410094   109.93000097
 C     40  39   2     1.087563892785    67.11435637   148.99849249
 C     39   2   1     1.087563297602   140.09768338   325.39549985
 C     41  40  39     1.344249121506   125.89384814   354.48083566
 O     44  41  40     1.195359287970   124.44291255   208.03727822
 O     44  41  40     1.346112632093   111.31690540    28.68006049
 H     43  39   2     1.087880862503   110.55594951   199.62887078
 H     42  40  39     1.089467865939   110.32336332   132.99306739

---------------------------
INTERNAL COORDINATES (A.U.)
---------------------------
 O      0   0   0     0.000000000000     0.00000000     0.00000000
 O      1   0   0    11.995507011572     0.00000000     0.00000000
 C      1   2   0     4.600744708770    62.54553285     0.00000000
 C      3   1   2     2.796950604556    94.39357356     0.81394226
 C      2   1   3     4.589549313962    47.61255872   325.48019199
 C      5   2   1     2.628350948265   146.82357528    24.19106752
 C      3   1   2     4.617671852671   117.47925380   182.19189458
 C      7   3   1     2.627547582513    28.74099997   182.09105326
 C      1   2   3     2.567120017327    91.31861715   358.47668798
 C      4   3   1     2.638045342377   121.29500971   305.63172960
 C      2   1   3     2.601057466235    24.34526912   357.41219129
 C      5   2   1     2.855837152503    92.25953065   206.42516872
 C      7   3   1     2.862178150716   149.32998081   179.80890656
 C      7   3   1     2.631156998165    89.08415447     1.79320159
 C     10   4   3     2.617583143042   120.79516328   182.73625556
 C     14   7   3     2.619339763966   120.93223362   358.98840189
 C     12   5   2     2.841707278639   113.02275781   298.68848603
 C     13   7   3     2.835396484569   112.91217242    55.70634731
 C     17  12   5     2.513011879806   125.04705243   122.74673478
 C     18  13   7     2.508028248586   125.03788248   240.34167028
 H      6   5   2     2.046880067446   118.70509471   181.87454682
 H      8   7   3     2.047582191290   119.08193410   181.57615154
 H     10   4   3     2.043656470242   119.54251360     2.04679340
 H     12   5   2     2.069446342292   110.30025173    61.47989811
 H     12   5   2     2.065167576955   108.19214611   177.74065261
 H     13   7   3     2.068599713934   110.22806683   293.33821778
 H     13   7   3     2.068170829786   108.42623484   176.94758225
 H     14   7   3     2.048221421999   119.66403464   179.61874753
 H     15  10   4     2.044815322714   120.98136541   178.67689636
 H     16  14   7     2.044728306443   121.12294504   181.81658186
 H     17  12   5     2.053356197770   115.53348116   304.13993393
 H     18  13   7     2.054245761004   115.54274569    59.10819469
 H      1   2   3     1.841422577617    37.65241186   123.95472041
 H      2   1   3     1.832055028051   131.17478533   326.71077373
 H     19  17  12     2.045313638331   121.69452031   180.39117715
 H     19  17  12     2.051197186765   121.43865223     1.80126876
 H     20  18  13     2.046210904645   121.73444349   179.62444044
 H     20  18  13     2.049903651268   121.37780220   359.36536096
 H      2   1   3     4.600664089790    77.32415756   230.07849338
 H     39   2   1     4.473785060436    79.96687874   290.27925722
 O     40  39   2     3.889721070620    84.45410094   109.93000097
 C     40  39   2     2.055197910506    67.11435637   148.99849249
 C     39   2   1     2.055196785771   140.09768338   325.39549985
 C     41  40  39     2.540262695411   125.89384814   354.48083566
 O     44  41  40     2.258901685902   124.44291255   208.03727822
 O     44  41  40     2.543784220068   111.31690540    28.68006049
 H     43  39   2     2.055796896465   110.55594951   199.62887078
 H     42  40  39     2.058795898333   110.32336332   132.99306739

--------------------------------------------------------------------------
WARNING: There was an error initializing an OpenFabrics device.

  Local host:   ga00
  Local device: mlx5_0
--------------------------------------------------------------------------


           ************************************************************
           *        Program running with 30 parallel MPI-processes    *
           *              working on a common directory               *
           ************************************************************
------------------------------------------------------------------------------
                   ___                                                        
                  /   \      - P O W E R E D   B Y -                         
                 /     \                                                     
                 |  |  |   _    _      __       _____    __    __             
                 |  |  |  | |  | |    /  \     |  _  \  |  |  /  |          
                  \  \/   | |  | |   /    \    | | | |  |  | /  /          
                 / \  \   | |__| |  /  /\  \   | |_| |  |  |/  /          
                |  |  |   |  __  | /  /__\  \  |    /   |      \           
                |  |  |   | |  | | |   __   |  |    \   |  |\   \          
                \     /   | |  | | |  |  |  |  | |\  \  |  | \   \       
                 \___/    |_|  |_| |__|  |__|  |_| \__\ |__|  \__/        
                                                                              
                      - O R C A' S   B I G   F R I E N D -                    
                                      &                                       
                       - I N T E G R A L  F E E D E R -                       
                                                                              
 v1 FN, 2020, v2 2021, v3 2022-2024                                           
------------------------------------------------------------------------------


----------------------
SHARK INTEGRAL PACKAGE
----------------------

Number of atoms                             ...     48
Number of basis functions                   ...    938
Number of shells                            ...    374
Maximum angular momentum                    ...      3
Integral batch strategy                     ... SHARK/LIBINT Hybrid
RI-J (if used) integral strategy            ... SPLIT-RIJ (Revised 2003 algorithm where possible)
Printlevel                                  ...      1
Contraction scheme used                     ... SEGMENTED contraction
Prescreening option                         ... SCHWARTZ
   Thresh                                   ... 2.500e-11
   Tcut                                     ... 2.500e-12
   Tpresel                                  ... 2.500e-12 
Coulomb Range Separation                    ... NOT USED
Exchange Range Separation                   ... NOT USED
Multipole approximations                    ... NOT USED
Finite Nucleus Model                        ... NOT USED
CABS basis                                  ... NOT available
Auxiliary Coulomb fitting basis             ... AVAILABLE
   # of basis functions in Aux-J            ...   1516
   # of shells in Aux-J                     ...    500
   Maximum angular momentum in Aux-J        ...      4
Auxiliary J/K fitting basis                 ... NOT available
Auxiliary Correlation fitting basis         ... NOT available
Auxiliary 'external' fitting basis          ... NOT available

Checking pre-screening integrals            ... done (  0.0 sec) Dimension = 374
Check shell pair data                       ... done (  0.0 sec)
Shell pair information
Shell pair cut-off parameter TPreSel        ...   2.5e-12
Total number of shell pairs                 ...     70125
Shell pairs after pre-screening             ...     45692
Total number of primitive shell pairs       ...    213516
Primitive shell pairs kept                  ...     90576
          la=0 lb=0:  12128 shell pairs
          la=1 lb=0:  13379 shell pairs
          la=1 lb=1:   3702 shell pairs
          la=2 lb=0:   6364 shell pairs
          la=2 lb=1:   3571 shell pairs
          la=2 lb=2:    880 shell pairs
          la=3 lb=0:   2949 shell pairs
          la=3 lb=1:   1717 shell pairs
          la=3 lb=2:    799 shell pairs
          la=3 lb=3:    203 shell pairs

Calculating one electron integrals          ... done (  0.1 sec)
Calculating RI/J V-Matrix + Cholesky decomp.... done (  0.1 sec)
Calculating Nuclear repulsion               ... done (  0.0 sec) ENN=   2327.521288852203 Eh

Diagonalization of the overlap matrix:
Smallest eigenvalue                        ... 5.230e-06
Time for diagonalization                   ...    0.135 sec
Threshold for overlap eigenvalues          ... 1.000e-07
Number of eigenvalues below threshold      ... 0
Time for construction of square roots      ...    0.062 sec
Total time needed                          ...    0.205 sec

-------------------
DFT GRID GENERATION
-------------------

General Integration Accuracy     IntAcc      ... 4.388
Radial Grid Type                 RadialGrid  ... OptM3 with GC (2021)
Angular Grid (max. ang.)         AngularGrid ... 4 (Lebedev-302)
Angular grid pruning method      GridPruning ... 4 (adaptive)
Weight generation scheme         WeightScheme... mBecke (2022)
Basis function cutoff            BFCut       ... 1.0000e-11
Integration weight cutoff        WCut        ... 1.0000e-14
Partially contracted basis set               ... off
Rotationally invariant grid construction     ... off
Angular grids for H and He will be reduced by one unit

Total number of grid points                  ...   225214
Total number of batches                      ...     3545
Average number of points per batch           ...       63
Average number of grid points per atom       ...     4692

--------------------
COSX GRID GENERATION
--------------------

GRIDX 1
-------
General Integration Accuracy     IntAcc      ... 3.816
Radial Grid Type                 RadialGrid  ... OptM3 with GC (2021)
Angular Grid (max. ang.)         AngularGrid ... 1 (Lebedev-50)
Angular grid pruning method      GridPruning ... 4 (adaptive)
Weight generation scheme         WeightScheme... mBecke (2022)
Basis function cutoff            BFCut       ... 1.0000e-11
Integration weight cutoff        WCut        ... 1.0000e-14
Partially contracted basis set               ... on
Rotationally invariant grid construction     ... off
Angular grids for H and He will be reduced by one unit

Total number of grid points                  ...    28550
Total number of batches                      ...      252
Average number of points per batch           ...      113
Average number of grid points per atom       ...      595
UseSFitting                                  ... on

GRIDX 2
-------
General Integration Accuracy     IntAcc      ... 4.020
Radial Grid Type                 RadialGrid  ... OptM3 with GC (2021)
Angular Grid (max. ang.)         AngularGrid ... 2 (Lebedev-110)
Angular grid pruning method      GridPruning ... 4 (adaptive)
Weight generation scheme         WeightScheme... mBecke (2022)
Basis function cutoff            BFCut       ... 1.0000e-11
Integration weight cutoff        WCut        ... 1.0000e-14
Partially contracted basis set               ... on
Rotationally invariant grid construction     ... off
Angular grids for H and He will be reduced by one unit

Total number of grid points                  ...    61572
Total number of batches                      ...      509
Average number of points per batch           ...      120
Average number of grid points per atom       ...     1283
UseSFitting                                  ... on

GRIDX 3
-------
General Integration Accuracy     IntAcc      ... 4.338
Radial Grid Type                 RadialGrid  ... OptM3 with GC (2021)
Angular Grid (max. ang.)         AngularGrid ... 3 (Lebedev-194)
Angular grid pruning method      GridPruning ... 4 (adaptive)
Weight generation scheme         WeightScheme... mBecke (2022)
Basis function cutoff            BFCut       ... 1.0000e-11
Integration weight cutoff        WCut        ... 1.0000e-14
Partially contracted basis set               ... on
Rotationally invariant grid construction     ... off
Angular grids for H and He will be reduced by one unit

Total number of grid points                  ...   134398
Total number of batches                      ...     1072
Average number of points per batch           ...      125
Average number of grid points per atom       ...     2800
UseSFitting                                  ... on
Initializing property integral containers    ... done (  0.0 sec)

SHARK setup successfully completed in   3.1 seconds

Maximum memory used throughout the entire STARTUP-calculation: 105.2 MB
