
                                 *****************
                                 * O   R   C   A *
                                 *****************

                                            #,                                       
                                            ###                                      
                                            ####                                     
                                            #####                                    
                                            ######                                   
                                           ########,                                 
                                     ,,################,,,,,                         
                               ,,#################################,,                 
                          ,,##########################################,,             
                       ,#########################################, ''#####,          
                    ,#############################################,,   '####,        
                  ,##################################################,,,,####,       
                ,###########''''           ''''###############################       
              ,#####''   ,,,,##########,,,,          '''####'''          '####       
            ,##' ,,,,###########################,,,                        '##       
           ' ,,###''''                  '''############,,,                           
         ,,##''                                '''############,,,,        ,,,,,,###''
      ,#''                                            '''#######################'''  
     '                                                          ''''####''''         
             ,#######,   #######,   ,#######,      ##                                
            ,#'     '#,  ##    ##  ,#'     '#,    #''#        ,####,   ,####,        
            ##       ##  ##   ,#'  ##            #'  '#       #'       #'  '#        
            ##       ##  #######   ##           ,######,      #####,   #    #        
            '#,     ,#'  ##    ##  '#,     ,#' ,#      #,     #,   #   #,  ,#        
             '#######'   ##     ##  '#######'  #'      '#     '####' # '####'        



                #########################################################
                #                        -***-                          #
                #          Department of theory and spectroscopy        #
                #                                                       #
                #                      Frank Neese                      #
                #                                                       #
                #     Directorship, Architecture, Infrastructure        #
                #                    SHARK, DRIVERS                     #
                #        Core code/Algorithms in most modules           #
                #                                                       #
                #        Max Planck Institute fuer Kohlenforschung      #
                #                Kaiser Wilhelm Platz 1                 #
                #                 D-45470 Muelheim/Ruhr                 #
                #                      Germany                          #
                #                                                       #
                #                  All rights reserved                  #
                #                        -***-                          #
                #########################################################


                         Program Version 6.0.1  -  RELEASE   -


 With contributions from (in alphabetic order):
[Max-Planck-Institut fuer Kohlenforschung]                               
  Daniel Aravena         : Magnetic Suceptibility                        
  Michael Atanasov       : Ab Initio Ligand Field Theory (pilot matlab implementation)
  Alexander A. Auer      : GIAO ZORA, VPT2 properties, NMR spectrum      
  Ute Becker             : All parallelization in ORCA, NUMFREQ, NUMCALC 
  Giovanni Bistoni       : ED, misc. LED, open-shell LED, HFLD           
  Martin Brehm           : Molecular dynamics                            
  Dmytro Bykov           : pre 5.0 version of the SCF Hessian            
  Marcos Casanova-Páez   : Triplet and SCS-CIS(D). UHF-(DLPNO)-IP/EA/STEOM-CCSD. UHF-CVS-IP/STEOM-CCSD   
  Vijay G. Chilkuri      : MRCI spin determinant printing, contributions to CSF-ICE 
  Pauline Colinet        : FMM embedding                                 
  Dipayan Datta          : RHF DLPNO-CCSD density                        
  Achintya Kumar Dutta   : EOM-CC, STEOM-CC                              
  Nicolas Foglia         : Exact transition moments, OPA infrastructure, MCD improvements    
  Dmitry Ganyushin       : Spin-Orbit,Spin-Spin,Magnetic field MRCI      
  Miquel Garcia-Rates    : C-PCM and meta-GGA Hessian, CCSD/C-PCM, Gaussian charge scheme 
  Tiago L. C. Gouveia    : GS-ROHF, GS-ROCIS                             
  Yang Guo               : DLPNO-NEVPT2, F12-NEVPT2, CIM, IAO-localization        
  Andreas Hansen         : Spin unrestricted coupled pair/coupled cluster methods 
  Ingolf Harden          : AUTO-CI MPn and infrastructure                
  Benjamin Helmich-Paris : MC-RPA, TRAH-(SCF,CASSCF), AVAS, COSX integrals, SCF dyn. polar. 
  Lee Huntington         : MR-EOM, pCC                                   
  Robert Izsak           : Overlap fitted RIJCOSX, COSX-SCS-MP3, EOM     
  Riya Kayal             : Wick's Theorem for AUTO-CI, AUTO-CI UHF-CCSDT 
  Emily Kempfer          : AUTO-CI, RHF CISDT and CCSDT                  
  Christian Kollmar      : KDIIS, OOCD, Brueckner-CCSD(T), CCSD density, CASPT2, CASPT2-K, improved NEVPT2 
  Axel Koslowski         : Symmetry handling                             
  Simone Kossmann        : meta-GGA functionals, TD-DFT gradient, OOMP2, (MP2 Hessian; deprecated post 5.0) 
  Lucas Lang             : DCDCAS                                        
  Marvin Lechner         : AUTO-CI (C++ implementation), FIC-MRCC        
  Spencer Leger          : CASSCF response                               
  Dagmar Lenk            : GEPOL surface, SMD, ORCA-2-JSON               
  Dimitrios Liakos       : Extrapolation schemes; Compound Job, initial MDCI parallelization 
  Dimitrios Manganas     : Further ROCIS development; embedding schemes. LFT, Crystal Embedding 
  Dimitrios Pantazis     : SARC Basis sets                               
  Anastasios Papadopoulos: AUTO-CI, single reference methods and gradients 
  Taras Petrenko         : pre 6.0 DFT Hessian and TD-DFT gradient, (ASA, deprecated), ECA, 1-Electron XAS/XES, NRVS 
  Peter Pinski           : DLPNO-MP2, DLPNO-MP2 Gradient                 
  Christoph Reimann      : Effective Core Potentials                     
  Marius Retegan         : Local ZFS, SOC                                
  Christoph Riplinger    : Optimizer, TS searches, QM/MM, DLPNO-CCSD(T), (RO)-DLPNO pert. Triples 
  Michael Roemelt        : Original ROCIS implementation                 
  Masaaki Saitow         : Open-shell DLPNO-CCSD energy and density      
  Barbara Sandhoefer     : DKH picture change effects                    
  Kantharuban Sivalingam : CASSCF convergence/infrastructure, NEVPT2 and variants, FIC-MRCI 
  Bernardo de Souza      : ESD, SOC TD-DFT                               
  Georgi L. Stoychev     : AutoAux, RI-MP2 NMR, DLPNO-MP2 response, X2C  
  Van Anh Tran           : RI-MP2 g-tensors                              
  Willem Van den Heuvel  : Paramagnetic NMR                              
  Zikuan Wang            : NOTCH, Electric field optimization            
  Frank Wennmohs         : Technical directorship and infrastructure     
  Hang Xu                : AUTO-CI-Response properties                   
                                                                         
[FACCTs GmbH]                                                            
  Markus Bursch, Miquel Garcia-Rates, Christoph Riplinger, Bernardo de Souza, Georgi L. Stoychev 
                                                                 
  APM, Basis sets (HGBS, AHGBS, def-TZVP (Ac-Lr), def2-XVPD (La-Lu)), CI-OPT, improved COSX, DLPNO-Multilevel,           
  DOCKER, DRACO, updates on ESD, GOAT, IRC, LR-CPCM, MBIS, meta-GGA TD-DFT gradient, ML-optimized integration grids, 
  MM, NACMEs, nearIR, NEB, NEB-TS, NL-DFT gradient (VV10), 2- and 3-layer-ONIOM, interface openCOSMO-RS, QMMM,   
  Crystal-QMMM, SF, symmetry and pop. for TD-DFT, r2SCAN hybrids, SOLVATOR                                   
                                                                         
[Other institutions]                                                     
  V. Asgeirsson          : NEB                                           
  Christoph Bannwarth    : sTDA-DFT, sTD-DFT, PBEh-3c, B97-3c, D3        
  Sebastian Ehlert       : rSCAN, r2SCAN, r2SCAN-3c, D4, dhf basis sets  
  Marvin Friede          : D4 for Fr, Ra, Ac-Lr                          
  Lars Goerigk           : TD-DFT with DH, B97 family of functionals     
  Stefan Grimme          : VdW corrections, initial TS optimization, DFT functionals, gCP, sTDA/sTD-DF 
  Waldemar Hujo          : DFT-NL                                        
  H. Jonsson             : NEB                                           
  Holger Kruse           : gCP                                           
  Marcel Mueller         : wB97X-3c, vDZP basis set                      
  Hagen Neugebauer       : wr2SCAN                                       
  Tobias Risthaus        : range-separated hybrid DFT                    
  Lukas Wittmann         : regularized MP2, r2SCAN double-hybrids, wr2SCAN        
                                                                         
We gratefully acknowledge several colleagues who have allowed us to      
interface, adapt or use parts of their codes:                            
  Ed Valeev, F. Pavosevic, A. Kumar             : LibInt (2-el integral package), F12 methods 
  Garnet Chan, S. Sharma, J. Yang, R. Olivares  : DMRG                   
  Ulf Ekstrom                                   : XCFun DFT Library      
  Mihaly Kallay                                 : mrcc  (arbitrary order and MRCC methods)
  Frank Weinhold                                : gennbo (NPA and NBO analysis)           
  Simon Mueller                                 : openCOSMO-RS                            
  Christopher J. Cramer and Donald G. Truhlar   : smd solvation model                     
  S Lehtola, MJT Oliveira, MAL Marques          : LibXC Library                           
  Liviu Ungur et al                             : ANISO software                          


 Your calculation uses the libint2 library for the computation of 2-el integrals
 For citations please refer to: http://libint.valeyev.net

 Your ORCA version has been built with support for libXC version: 6.2.2
 For citations please refer to: https://libxc.gitlab.io

 This ORCA versions uses:
   CBLAS   interface :  Fast vector & matrix operations
   LAPACKE interface :  Fast linear algebra routines
   SCALAPACK package :  Parallel linear algebra routines
   Shared memory     :  Shared parallel matrices
   BLAS/LAPACK       :  OpenBLAS 0.3.27  USE64BITINT DYNAMIC_ARCH NO_AFFINITY SkylakeX SINGLE_THREADED
        Core in use  :  SkylakeX
   Copyright (c) 2011-2014, The OpenBLAS Project


NOTE: MaxCore=5000 MB was set to SCF,MP2,MDCI,CIPSI,MRCI and CIS
      => If you want to overwrite this, your respective input block should be placed after the MaxCore statement
Your calculation utilizes the atom-pairwise dispersion correction
with the Becke-Johnson damping scheme (D3BJ)


Warning: RI is on but no J-basis has been assigned. Assigning Def2/J (nothing to worry about!)
================================================================================

----- Orbital basis set information -----
Your calculation utilizes the basis: def2-TZVP
   F. Weigend and R. Ahlrichs, Phys. Chem. Chem. Phys. 7, 3297 (2005).

----- AuxJ basis set information -----
Your calculation utilizes the auxiliary basis: def2/J
   F. Weigend, Phys. Chem. Chem. Phys. 8, 1057 (2006).

================================================================================
                                        WARNINGS
                       Please study these warnings very carefully!
================================================================================


WARNING: Geometry Optimization
  ===> : Switching off AutoStart
         For restart on a previous wavefunction, please use MOREAD

================================================================================
                                       INPUT FILE
================================================================================
NAME = honokiol3_FEC2.inp
|  1> ! OPT B3LYP def2-TZVP TightSCF D3BJ RIJCOSX
|  2> 
|  3> %maxcore 5000
|  4> 
|  5> %pal
|  6> nprocs 30
|  7> end
|  8> 
|  9> * xyz 0 1
| 10> O           1.96580307259415      1.18170168287229      2.75004233022268
| 11>   O          -3.64086885706095     -1.86363801514660      2.15724390030801
| 12>   C           1.42906411230970      0.11080877225644      0.61606040596895
| 13>   C           0.10099174908051     -0.39218495480428      1.03435415399343
| 14>   C          -2.23928872318236     -0.81360009363233      0.47656384761504
| 15>   C          -0.98026661418628     -0.32590034121457      0.15294583039861
| 16>   C           3.10860052737857      0.28700721238461     -1.15831643930635
| 17>   C           1.86715836829844     -0.12184882881317     -0.69079156498175
| 18>   C           2.28776559068316      0.81765337001565      1.47744644527676
| 19>   C          -0.10799061612590     -0.99338462336026      2.27790388792666
| 20>   C          -2.41485192297565     -1.40821467927183      1.73118490401262
| 21>   C          -3.38819036117532     -0.67440410395236     -0.49341716860864
| 22>   C           3.52551004349211      0.01132147569996     -2.58733733606589
| 23>   C           3.95629280289902      0.93867542173521     -0.26570063049613
| 24>   C          -1.35230875538808     -1.49905891629625      2.62080946125780
| 25>   C           3.55255755844643      1.19932434280379      1.03388355882950
| 26>   C          -3.99987734592804     -1.99603885022575     -0.87007991464122
| 27>   C           2.43553580263315      0.29589479994363     -3.57836421978779
| 28>   C          -5.27819661836236     -2.32244363400417     -0.70338287940968
| 29>   C           1.92731336598702     -0.59676298471191     -4.41789108253964
| 30>   H          -0.84975004793239      0.15200067760450     -0.80838411916275
| 31>   H           1.20948645149738     -0.65309211042521     -1.36614493393972
| 32>   H           0.71205059526721     -1.08759263695136      2.97633920279087
| 33>   H          -4.16698819112217     -0.02460245140854     -0.07996768199010
| 34>   H          -3.01570537539896     -0.18593014201877     -1.39589455714264
| 35>   H           3.84727741159367     -1.03017580352916     -2.69113841011197
| 36>   H           4.39886729366533      0.63053272399773     -2.81616016406177
| 37>   H           4.93890396592877      1.25914129289181     -0.59168855830131
| 38>   H          -1.50967932591712     -1.98088511765195      3.57682323684860
| 39>   H           4.19491719554609      1.73172597774596      1.72327939117593
| 40>   H          -3.31374023081474     -2.72458583652146     -1.29353053051910
| 41>   H           2.03420163841803      1.30486685757286     -3.56237565906031
| 42>   H           1.00542319051696      1.24022738332154      2.87699725925591
| 43>   H          -4.16865091573862     -2.13804950497816      1.39039731417387
| 44>   H          -5.66078682587208     -3.29218942822351     -0.99397316028860
| 45>   H          -5.99282145757925     -1.61605490202757     -0.29266595483458
| 46>   H           1.13180674128268     -0.33871222219224     -5.10517234002948
| 47>   H           2.29124001097642     -1.61851170857866     -4.44577774621117
| 48>   H          -4.44488279031890      0.79645171117598      2.24181101764990
| 49>   H          -3.55636766559340     -0.35581431949235      4.16688929576400
| 50>   O          -2.18475432286283      1.16273865803367      4.46178542677124
| 51>   C          -3.54107151813290      0.72633626877051      4.26846356597826
| 52>   C          -3.95857810250775      1.42769974403197      2.98021359911573
| 53>   C          -1.75426258157199      1.79387136668546      3.36325573985061
| 54>   O          -0.64478725444458      2.20000444808300      3.19256015933214
| 55>   O          -2.75167461785612      1.91576840240783      2.45150719708479
| 56>   F          -4.78748920051953      2.49097793532970      3.24325546886027
| 57>   H          -4.14014284570293      1.05398610578444      5.11458275889288
| 58>   H           1.94943539439374      4.82582683608546     -0.64473126386830
| 59>   H           2.34555418556376      3.20611732360174      0.02110603641263
| 60>   C           1.57785078300016      3.82514593039778     -0.43872035999887
| 61>   F          -0.27484231038300      5.10473297630129      0.36040932580840
| 62>   C           0.30165532475343      3.85260812792038      0.39425789490601
| 63>   H           0.40124527522338      3.55433672463147      1.43381209685157
| 64>   O           1.16017507350834      3.21608300895159     -1.67158240193219
| 65>   O          -0.54608368017816      2.95355831799960     -0.26963752616813
| 66>   C          -0.05740929096932      2.66935928036959     -1.50934178845111
| 67>   O          -0.63565997003591      2.01461897022494     -2.31878293582447
| 68> *
| 69> 
| 70>                          ****END OF INPUT****
================================================================================

                       *****************************
                       * Geometry Optimization Run *
                       *****************************

Geometry optimization settings:
Update method            Update   .... BFGS
Choice of coordinates    CoordSys .... (2022) Redundant Internals
Initial Hessian          InHess   .... Almloef's Model
Max. no of cycles        MaxIter  .... 174

Convergence Tolerances:
Energy Change            TolE     ....  5.0000e-06 Eh
Max. Gradient            TolMAXG  ....  3.0000e-04 Eh/bohr
RMS Gradient             TolRMSG  ....  1.0000e-04 Eh/bohr
Max. Displacement        TolMAXD  ....  4.0000e-03 bohr
RMS Displacement         TolRMSD  ....  2.0000e-03 bohr
Strict Convergence                .... False

------------------------------------------------------------------------------
                        ORCA OPTIMIZATION COORDINATE SETUP
------------------------------------------------------------------------------

The optimization will be done in redundant internal coordinates (2022)
Making redundant internal coordinates   ...  (2022 redundants) done
Evaluating the initial hessian          ...  (Almloef) done
Evaluating the coordinates              ...  done
Calculating the B-matrix                .... done
Calculating the G-matrix                .... done
Diagonalizing the G-matrix              .... done
Small eigenvalue found = 9.956e-03
Small eigenvalue found = 1.258e-02
Small eigenvalue found = 2.707e-02
The first mode is                       ....  297
The number of degrees of freedom        ....  168

    -----------------------------------------------------------------
                    Redundant Internal Coordinates


    -----------------------------------------------------------------
         Definition                    Initial Value    Approx d2E/dq
    -----------------------------------------------------------------
      1. B(C   3,C   2)                  1.4805         0.448149   
      2. B(C   5,C   4)                  1.3884         0.628428   
      3. B(C   5,C   3)                  1.3966         0.609908   
      4. B(C   7,C   2)                  1.3978         0.607089   
      5. B(C   7,C   6)                  1.3881         0.629090   
      6. B(C   8,C   2)                  1.4068         0.587481   
      7. B(C   8,O   0)                  1.3622         0.619682   
      8. B(C   9,C   3)                  1.3970         0.608997   
      9. B(C  10,C   4)                  1.3995         0.603476   
     10. B(C  10,O   1)                  1.3755         0.590171   
     11. B(C  11,C   4)                  1.5100         0.402000   
     12. B(C  12,C   6)                  1.5139         0.396325   
     13. B(C  13,C   6)                  1.3928         0.618301   
     14. B(C  14,C  10)                  1.3888         0.627626   
     15. B(C  14,C   9)                  1.3862         0.633523   
     16. B(C  15,C   8)                  1.3936         0.616589   
     17. B(C  15,C  13)                  1.3856         0.635002   
     18. B(C  16,C  11)                  1.5042         0.410646   
     19. B(C  17,C  12)                  1.5004         0.416508   
     20. B(C  18,C  16)                  1.3298         0.779377   
     21. B(C  19,C  17)                  1.3266         0.788587   
     22. B(H  20,C   5)                  1.0815         0.371562   
     23. B(H  21,C   7)                  1.0821         0.370758   
     24. B(H  22,C   9)                  1.0813         0.371830   
     25. B(H  23,C  11)                  1.0953         0.353141   
     26. B(H  24,C  11)                  1.0917         0.357853   
     27. B(H  25,C  12)                  1.0950         0.353546   
     28. B(H  26,C  12)                  1.0948         0.353837   
     29. B(H  27,C  13)                  1.0837         0.368478   
     30. B(H  28,C  14)                  1.0821         0.370739   
     31. B(H  29,C  15)                  1.0823         0.370450   
     32. B(H  30,C  16)                  1.0867         0.364518   
     33. B(H  31,C  17)                  1.0860         0.365459   
     34. B(H  32,O   0)                  0.9705         0.500280   
     35. B(H  33,O   1)                  0.9705         0.500245   
     36. B(H  34,C  18)                  1.0822         0.370525   
     37. B(H  35,C  18)                  1.0855         0.366070   
     38. B(H  36,C  19)                  1.0825         0.370178   
     39. B(H  37,C  19)                  1.0850         0.366797   
     40. B(H  38,H  23)                  2.4783         0.000420   
     41. B(H  39,O   1)                  2.5138         0.001726   
     42. B(O  40,H  39)                  2.0674         0.008895   
     43. B(C  41,O  40)                  1.4379         0.469388   
     44. B(C  41,H  39)                  1.0870         0.364071   
     45. B(C  42,C  41)                  1.5251         0.380415   
     46. B(C  42,H  38)                  1.0864         0.364931   
     47. B(C  43,O  40)                  1.3381         0.677226   
     48. B(O  44,H  32)                  1.9349         0.014472   
     49. B(O  44,C  43)                  1.1937         1.150787   
     50. B(O  45,C  43)                  1.3568         0.632126   
     51. B(O  45,C  42)                  1.4051         0.529365   
     52. B(F  46,C  42)                  1.3736         0.552195   
     53. B(H  47,C  41)                  1.0873         0.363728   
     54. B(H  49,H  29)                  2.9140         0.000085   
     55. B(H  49,C   8)                  2.7980         0.000678   
     56. B(H  49,C  13)                  2.7961         0.000683   
     57. B(H  49,C  15)                  2.5514         0.001678   
     58. B(C  50,H  49)                  1.0881         0.362596   
     59. B(C  50,H  48)                  1.0871         0.363901   
     60. B(C  52,F  51)                  1.3789         0.541635   
     61. B(C  52,C  50)                  1.5242         0.381576   
     62. B(H  53,C  52)                  1.0861         0.365331   
     63. B(H  53,F  51)                  2.0033         0.010462   
     64. B(H  53,H  32)                  2.7934         0.000132   
     65. B(H  53,O  44)                  2.4539         0.002151   
     66. B(O  54,C  50)                  1.4371         0.470623   
     67. B(O  54,H  31)                  2.8270         0.000546   
     68. B(O  55,C  52)                  1.4028         0.533990   
     69. B(O  55,H  53)                  2.0396         0.009851   
     70. B(O  55,H  20)                  2.8690         0.000468   
     71. B(C  56,O  55)                  1.3625         0.619058   
     72. B(C  56,O  54)                  1.3445         0.661351   
     73. B(C  56,H  20)                  2.7306         0.000869   
     74. B(O  57,H  20)                  2.4076         0.002549   
     75. B(O  57,C  56)                  1.1909         1.162839   
     76. B(O  57,H  31)                  3.0296         0.000259   
     77. A(C   8,O   0,H  32)          111.8517         0.367640   
     78. A(C  10,O   1,H  33)          109.4863         0.364575   
     79. A(H  33,O   1,H  39)          145.0388         0.152409   
     80. A(C  10,O   1,H  39)           91.0925         0.165373   
     81. A(C   7,C   2,C   8)          117.6965         0.428264   
     82. A(C   3,C   2,C   8)          123.0443         0.405738   
     83. A(C   3,C   2,C   7)          119.2589         0.408100   
     84. A(C   5,C   3,C   9)          117.8020         0.431396   
     85. A(C   2,C   3,C   9)          122.1359         0.408327   
     86. A(C   2,C   3,C   5)          120.0059         0.408435   
     87. A(C   5,C   4,C  10)          118.1622         0.433012   
     88. A(C   5,C   4,C  11)          120.5195         0.402791   
     89. A(C  10,C   4,C  11)          121.3051         0.399927   
     90. A(C   4,C   5,H  20)          118.1544         0.355601   
     91. A(C   3,C   5,H  20)          119.2454         0.353802   
     92. A(C   3,C   5,C   4)          122.5675         0.433839   
     93. A(C  12,C   6,C  13)          121.5016         0.400635   
     94. A(C   7,C   6,C  12)          120.7014         0.401857   
     95. A(C   7,C   6,C  13)          117.7913         0.434990   
     96. A(C   2,C   7,C   6)          123.1032         0.433560   
     97. A(C   6,C   7,H  21)          118.5523         0.355534   
     98. A(C   2,C   7,H  21)          118.3426         0.353395   
     99. A(C   2,C   8,C  15)          119.7826         0.429458   
    100. A(O   0,C   8,C   2)          124.1966         0.427039   
    101. A(C   2,C   8,H  49)           97.0546         0.152005   
    102. A(C  15,C   8,H  49)           65.2795         0.152698   
    103. A(O   0,C   8,H  49)          105.2477         0.152246   
    104. A(O   0,C   8,C  15)          116.0180         0.430760   
    105. A(C   3,C   9,C  14)          120.7619         0.434353   
    106. A(C   3,C   9,H  22)          119.9364         0.353755   
    107. A(C  14,C   9,H  22)          119.2880         0.356132   
    108. A(C   4,C  10,C  14)          120.4045         0.432913   
    109. A(O   1,C  10,C  14)          117.5075         0.428366   
    110. A(O   1,C  10,C   4)          122.0178         0.425366   
    111. A(C   4,C  11,H  23)          110.6830         0.327203   
    112. A(H  23,C  11,H  24)          106.8098         0.289665   
    113. A(C  16,C  11,H  24)          108.9577         0.329072   
    114. A(C  16,C  11,H  23)          109.0640         0.328353   
    115. A(C   4,C  11,H  24)          108.2198         0.327919   
    116. A(C   4,C  11,C  16)          112.9075         0.373981   
    117. A(H  25,C  12,H  26)          106.4833         0.289205   
    118. A(C  17,C  12,H  26)          109.5240         0.329229   
    119. A(C   6,C  12,H  26)          108.2996         0.326543   
    120. A(C  17,C  12,H  25)          109.3451         0.329184   
    121. A(C   6,C  12,H  25)          110.0968         0.326499   
    122. A(C   6,C  12,C  17)          112.8849         0.373978   
    123. A(C   6,C  13,H  27)          119.8278         0.354122   
    124. A(C   6,C  13,C  15)          120.7808         0.435723   
    125. A(C  15,C  13,H  27)          119.3862         0.355726   
    126. A(C  15,C  13,H  49)           65.3791         0.153229   
    127. A(C   6,C  13,H  49)           95.4253         0.152842   
    128. A(H  27,C  13,H  49)          108.2626         0.138112   
    129. A(C   9,C  14,H  28)          120.7656         0.355954   
    130. A(C   9,C  14,C  10)          120.2951         0.436716   
    131. A(C  10,C  14,H  28)          118.9348         0.355390   
    132. A(C  13,C  15,H  49)           85.0375         0.167718   
    133. A(C   8,C  15,H  49)           84.9750         0.167195   
    134. A(H  29,C  15,H  49)           98.4362         0.149264   
    135. A(C  13,C  15,H  29)          121.1339         0.356048   
    136. A(C   8,C  15,C  13)          120.7611         0.435505   
    137. A(C   8,C  15,H  29)          118.0762         0.354276   
    138. A(C  11,C  16,C  18)          125.1106         0.420049   
    139. A(C  18,C  16,H  30)          119.4222         0.367702   
    140. A(C  11,C  16,H  30)          115.4589         0.330077   
    141. A(C  19,C  17,H  31)          119.5318         0.368608   
    142. A(C  12,C  17,H  31)          115.7830         0.330993   
    143. A(C  12,C  17,C  19)          124.6578         0.421998   
    144. A(H  34,C  18,H  35)          116.8696         0.292905   
    145. A(C  16,C  18,H  35)          121.3679         0.367971   
    146. A(C  16,C  18,H  34)          121.7428         0.368735   
    147. A(H  36,C  19,H  37)          117.0438         0.292953   
    148. A(C  17,C  19,H  37)          121.4282         0.368839   
    149. A(C  17,C  19,H  36)          121.5280         0.369421   
    150. A(C  56,H  20,O  57)           25.8327         0.105629   
    151. A(C   5,H  20,C  56)          132.1129         0.140958   
    152. A(C   5,H  20,O  57)          155.5415         0.154520   
    153. A(O  55,H  20,C  56)           28.0255         0.100330   
    154. A(C   5,H  20,O  55)          106.1029         0.133643   
    155. A(O  55,H  20,O  57)           49.6794         0.103288   
    156. A(C  11,H  23,H  38)          129.0429         0.123845   
    157. A(C  15,H  29,H  49)           60.0090         0.113520   
    158. A(O  54,H  31,O  57)           45.1386         0.097821   
    159. A(C  17,H  31,O  57)          123.3247         0.127917   
    160. A(C  17,H  31,O  54)          138.7840         0.135058   
    161. A(O  44,H  32,H  53)           59.2610         0.101860   
    162. A(O   0,H  32,H  53)          101.3270         0.117676   
    163. A(O   0,H  32,O  44)          153.5349         0.191613   
    164. A(H  23,H  38,C  42)          141.1760         0.124105   
    165. A(O   1,H  39,C  41)          132.2450         0.148704   
    166. A(C  41,O  40,C  43)          109.6491         0.414124   
    167. A(H  39,C  41,O  40)          109.1468         0.335370   
    168. A(C  42,C  41,H  47)          111.5884         0.325824   
    169. A(O  40,C  41,H  47)          108.8837         0.335318   
    170. A(H  39,C  41,H  47)          111.4055         0.291801   
    171. A(O  40,C  41,C  42)          103.4285         0.376703   
    172. A(H  39,C  41,C  42)          112.0273         0.325874   
    173. A(O  45,C  42,F  46)          108.7538         0.406230   
    174. A(C  41,C  42,F  46)          111.0652         0.385813   
    175. A(H  38,C  42,F  46)          108.0478         0.343307   
    176. A(C  41,C  42,O  45)          104.0308         0.384641   
    177. A(H  38,C  42,O  45)          109.3037         0.342303   
    178. A(H  38,C  42,C  41)          115.4343         0.326001   
    179. A(O  44,C  43,O  45)          123.8185         0.481125   
    180. A(O  40,C  43,O  45)          110.9498         0.436782   
    181. A(O  40,C  43,O  44)          125.2317         0.487289   
    182. A(H  32,O  44,H  53)           78.0725         0.118891   
    183. A(C  43,O  44,H  53)          133.3490         0.182374   
    184. A(H  32,O  44,C  43)          130.3319         0.232756   
    185. A(C  42,O  45,C  43)          110.3258         0.417923   
    186. A(C  13,H  49,C  15)           29.5835         0.103494   
    187. A(C  13,H  49,C  50)          145.5308         0.137934   
    188. A(C  15,H  49,C  50)          161.6168         0.148973   
    189. A(C   8,H  49,H  29)           43.7111         0.094888   
    190. A(C  13,H  49,H  29)           44.2752         0.094897   
    191. A(C  15,H  49,H  29)           21.5548         0.096228   
    192. A(H  29,H  49,C  50)          169.2525         0.113401   
    193. A(C   8,H  49,C  13)           51.1748         0.100807   
    194. A(C   8,H  49,C  15)           29.7455         0.103471   
    195. A(C   8,H  49,C  50)          133.7095         0.137854   
    196. A(C  52,C  50,O  54)          103.4803         0.377073   
    197. A(H  49,C  50,O  54)          109.0547         0.335291   
    198. A(H  48,C  50,O  54)          109.0791         0.335491   
    199. A(H  49,C  50,C  52)          111.7175         0.325820   
    200. A(H  48,C  50,C  52)          111.9102         0.326013   
    201. A(H  48,C  50,H  49)          111.2588         0.291636   
    202. A(H  53,C  52,O  55)          109.4150         0.342865   
    203. A(F  51,C  52,O  55)          108.5248         0.405469   
    204. A(C  50,C  52,O  55)          103.6391         0.385428   
    205. A(F  51,C  52,H  53)          108.1328         0.342261   
    206. A(C  50,C  52,H  53)          116.1906         0.326223   
    207. A(C  50,C  52,F  51)          110.6710         0.384723   
    208. A(H  32,H  53,O  44)           42.6666         0.097353   
    209. A(H  32,H  53,C  52)          137.8904         0.116021   
    210. A(O  44,H  53,C  52)          142.9874         0.151804   
    211. A(C  50,O  54,C  56)          109.3906         0.412575   
    212. A(H  31,O  54,C  56)           94.9211         0.149403   
    213. A(H  31,O  54,C  50)          140.3930         0.144926   
    214. A(C  52,O  55,C  56)          110.3380         0.417017   
    215. A(H  20,O  55,C  56)           70.3316         0.146462   
    216. A(H  20,O  55,C  52)          141.1409         0.144571   
    217. A(H  20,C  56,O  57)           61.7537         0.166134   
    218. A(H  20,C  56,O  55)           81.6429         0.155877   
    219. A(H  20,C  56,O  54)          131.9610         0.156885   
    220. A(O  55,C  56,O  57)          123.9834         0.480197   
    221. A(O  54,C  56,O  57)          125.5390         0.486092   
    222. A(O  54,C  56,O  55)          110.4733         0.433288   
    223. A(H  20,O  57,C  56)           92.4137         0.186268   
    224. A(H  20,O  57,H  31)           98.8957         0.101502   
    225. A(H  31,O  57,C  56)           88.8481         0.146991   
    226. D(C   5,C   3,C   2,C   7)    -39.3848         0.013693   
    227. D(C   5,C   3,C   2,C   8)    140.7963         0.013693   
    228. D(C   9,C   3,C   2,C   7)    137.8275         0.013693   
    229. D(C   9,C   3,C   2,C   8)    -41.9914         0.013693   
    230. D(H  20,C   5,C   4,C  10)   -178.7504         0.027373   
    231. D(H  20,C   5,C   3,C   2)     -3.8642         0.025691   
    232. D(C   3,C   5,C   4,C  11)    177.8445         0.027373   
    233. D(C   4,C   5,C   3,C   9)      0.9261         0.025691   
    234. D(C   3,C   5,C   4,C  10)     -0.8501         0.027373   
    235. D(C   4,C   5,C   3,C   2)    178.2575         0.025691   
    236. D(H  20,C   5,C   4,C  11)     -0.0558         0.027373   
    237. D(H  20,C   5,C   3,C   9)    178.8044         0.025691   
    238. D(H  21,C   7,C   2,C   3)      0.9711         0.025440   
    239. D(C   6,C   7,C   2,C   8)      1.3215         0.025440   
    240. D(C   2,C   7,C   6,C  12)   -179.7347         0.027435   
    241. D(H  21,C   7,C   6,C  12)      0.7882         0.027435   
    242. D(H  21,C   7,C   6,C  13)   -178.3597         0.027435   
    243. D(C   6,C   7,C   2,C   3)   -178.5070         0.025440   
    244. D(C   2,C   7,C   6,C  13)      1.1174         0.027435   
    245. D(H  21,C   7,C   2,C   8)   -179.2004         0.025440   
    246. D(O   0,C   8,C   2,C   3)     -3.9921         0.025784   
    247. D(H  49,C   8,C   2,C   3)   -117.8508         0.025784   
    248. D(C  15,C   8,C   2,C   7)     -3.1727         0.025784   
    249. D(H  49,C   8,O   0,H  32)     86.1042         0.031092   
    250. D(C  15,C   8,C   2,C   3)    176.6488         0.025784   
    251. D(C  15,C   8,O   0,H  32)    155.6612         0.031092   
    252. D(C   2,C   8,O   0,H  32)    -23.7198         0.031092   
    253. D(O   0,C   8,C   2,C   7)    176.1864         0.025784   
    254. D(C  14,C   9,C   3,C   2)   -177.5882         0.025610   
    255. D(H  22,C   9,C   3,C   2)      1.0537         0.025610   
    256. D(C  14,C   9,C   3,C   5)     -0.3173         0.025610   
    257. D(H  22,C   9,C   3,C   5)    178.3246         0.025610   
    258. D(O   1,C  10,C   4,C   5)    177.0383         0.025122   
    259. D(C  14,C  10,C   4,C   5)      0.1623         0.025122   
    260. D(O   1,C  10,C   4,C  11)     -1.6456         0.025122   
    261. D(C  14,C  10,O   1,H  39)     55.0983         0.028001   
    262. D(C   4,C  10,O   1,H  39)   -121.8641         0.028001   
    263. D(C  14,C  10,C   4,C  11)   -178.5216         0.025122   
    264. D(C   4,C  10,O   1,H  33)     29.3281         0.028001   
    265. D(C  14,C  10,O   1,H  33)   -153.7096         0.028001   
    266. D(H  23,C  11,C   4,C  10)     63.3084         0.011988   
    267. D(H  24,C  11,C   4,C   5)      1.3801         0.011988   
    268. D(H  23,C  11,C   4,C   5)   -115.3447         0.011988   
    269. D(C  16,C  11,C   4,C  10)    -59.2765         0.011988   
    270. D(C  16,C  11,C   4,C   5)    122.0704         0.011988   
    271. D(H  26,C  12,C   6,C   7)    165.4358         0.011667   
    272. D(H  25,C  12,C   6,C  13)    100.6061         0.011667   
    273. D(H  25,C  12,C   6,C   7)    -78.5097         0.011667   
    274. D(C  17,C  12,C   6,C   7)     43.9912         0.011667   
    275. D(C  17,C  12,C   6,C  13)   -136.8929         0.011667   
    276. D(H  49,C  13,C   6,C   7)    -66.2301         0.028736   
    277. D(H  27,C  13,C   6,C  12)     -0.0353         0.028736   
    278. D(H  27,C  13,C   6,C   7)    179.1053         0.028736   
    279. D(C  15,C  13,C   6,C   7)     -1.7315         0.028736   
    280. D(C  15,C  13,C   6,C  12)    179.1278         0.028736   
    281. D(H  28,C  14,C  10,O   1)      4.1775         0.027299   
    282. D(C   9,C  14,C  10,C   4)      0.4160         0.027299   
    283. D(C   9,C  14,C  10,O   1)   -176.5978         0.027299   
    284. D(H  28,C  14,C  10,C   4)   -178.8088         0.027299   
    285. D(H  28,C  14,C   9,H  22)      0.2247         0.027848   
    286. D(H  28,C  14,C   9,C   3)    178.8753         0.027848   
    287. D(C  10,C  14,C   9,H  22)   -178.9857         0.027848   
    288. D(C  10,C  14,C   9,C   3)     -0.3351         0.027848   
    289. D(H  29,C  15,C  13,H  27)      1.0367         0.032706   
    290. D(H  29,C  15,C  13,C   6)   -178.1301         0.032706   
    291. D(C   8,C  15,C  13,H  49)     81.1414         0.032706   
    292. D(C   8,C  15,C  13,H  27)    179.0467         0.032706   
    293. D(C   8,C  15,C  13,C   6)     -0.1201         0.032706   
    294. D(H  29,C  15,C   8,H  49)     96.8929         0.030707   
    295. D(H  29,C  15,C   8,C   2)   -179.2896         0.030707   
    296. D(H  29,C  15,C   8,O   0)      1.3003         0.030707   
    297. D(C  13,C  15,C   8,H  49)    -81.1765         0.030707   
    298. D(C  13,C  15,C   8,C   2)      2.6410         0.030707   
    299. D(H  29,C  15,C  13,H  49)    -96.8685         0.032706   
    300. D(C  13,C  15,C   8,O   0)   -176.7691         0.030707   
    301. D(H  30,C  16,C  11,H  23)   -179.9703         0.012488   
    302. D(H  30,C  16,C  11,C   4)    -56.4854         0.012488   
    303. D(C  18,C  16,C  11,H  23)     -1.0316         0.012488   
    304. D(C  18,C  16,C  11,C   4)    122.4533         0.012488   
    305. D(C  18,C  16,C  11,H  24)   -117.2780         0.012488   
    306. D(H  31,C  17,C  12,H  25)    179.7399         0.012835   
    307. D(H  31,C  17,C  12,C   6)     56.8194         0.012835   
    308. D(C  19,C  17,C  12,H  26)    117.9924         0.012835   
    309. D(C  19,C  17,C  12,C   6)   -121.2586         0.012835   
    310. D(C  19,C  17,C  12,H  25)      1.6619         0.012835   
    311. D(H  35,C  18,C  16,H  30)   -179.3788         0.043653   
    312. D(H  35,C  18,C  16,C  11)      1.7213         0.043653   
    313. D(H  34,C  18,C  16,H  30)     -1.0409         0.043653   
    314. D(H  34,C  18,C  16,C  11)   -179.9408         0.043653   
    315. D(H  37,C  19,C  17,H  31)   -178.7559         0.044800   
    316. D(H  37,C  19,C  17,C  12)     -0.7450         0.044800   
    317. D(H  36,C  19,C  17,H  31)      1.2485         0.044800   
    318. D(H  36,C  19,C  17,C  12)    179.2594         0.044800   
    319. D(O  55,H  20,C   5,C   3)    -69.7886         0.143023   
    320. D(C  56,H  20,C   5,C   4)    120.3388         0.143023   
    321. D(C  56,H  20,C   5,C   3)    -57.6332         0.143023   
    322. D(O  57,H  20,C   5,C   3)    -77.0596         0.143023   
    323. D(O  57,H  20,C   5,C   4)    100.9124         0.143023   
    324. D(H  38,H  23,C  11,H  24)   -130.4451         0.115841   
    325. D(H  38,H  23,C  11,C  16)    111.9440         0.115841   
    326. D(H  38,H  23,C  11,C   4)    -12.8529         0.115841   
    327. D(H  49,H  29,C  15,C  13)     89.2793         0.130162   
    328. D(H  49,H  29,C  15,C   8)    -88.7826         0.130162   
    329. D(O  57,H  31,C  17,C  19)     74.7688         0.125922   
    330. D(O  57,H  31,C  17,C  12)   -103.4142         0.125922   
    331. D(O  54,H  31,C  17,C  19)    132.7221         0.125922   
    332. D(O  54,H  31,C  17,C  12)    -45.4608         0.125922   
    333. D(H  53,H  32,O   0,C   8)    -71.8667         0.313015   
    334. D(O  44,H  32,O   0,C   8)   -111.7517         0.313015   
    335. D(C  42,H  38,H  23,C  11)     64.7451         0.001502   
    336. D(C  41,H  39,O   1,H  33)    -63.6905         0.001502   
    337. D(C  41,H  39,O   1,C  10)     63.8647         0.001502   
    338. D(C  42,C  41,O  40,C  43)    -10.5851         0.018823   
    339. D(H  47,C  41,O  40,C  43)   -129.3663         0.018823   
    340. D(H  39,C  41,O  40,C  43)    108.8256         0.018823   
    341. D(H  47,C  41,H  39,O   1)    141.4472         0.136079   
    342. D(C  42,C  41,H  39,O   1)     15.6503         0.136079   
    343. D(O  40,C  41,H  39,O   1)    -98.2820         0.136079   
    344. D(O  45,C  42,C  41,O  40)     12.4745         0.011533   
    345. D(O  45,C  42,C  41,H  39)   -104.9358         0.011533   
    346. D(H  38,C  42,C  41,H  47)   -110.8867         0.011533   
    347. D(H  38,C  42,C  41,O  40)    132.2204         0.011533   
    348. D(H  38,C  42,C  41,H  39)     14.8101         0.011533   
    349. D(F  46,C  42,H  38,H  23)    116.0898         0.125479   
    350. D(O  45,C  42,H  38,H  23)     -2.1014         0.125479   
    351. D(O  45,C  42,C  41,H  47)    129.3673         0.011533   
    352. D(C  41,C  42,H  38,H  23)   -118.9113         0.125479   
    353. D(O  45,C  43,O  40,C  41)      4.5576         0.037709   
    354. D(O  44,C  43,O  40,C  41)   -175.3775         0.037709   
    355. D(H  53,O  44,C  43,O  45)      6.8094         0.125855   
    356. D(H  53,O  44,C  43,O  40)   -173.2635         0.125855   
    357. D(H  32,O  44,C  43,O  45)   -108.5703         0.125855   
    358. D(H  32,O  44,C  43,O  40)     71.3568         0.125855   
    359. D(H  53,O  44,H  32,O   0)     47.0154         0.001621   
    360. D(C  43,O  44,H  32,H  53)    137.8169         0.001621   
    361. D(C  43,O  44,H  32,O   0)   -175.1677         0.001621   
    362. D(C  42,O  45,C  43,O  44)   -175.7740         0.029401   
    363. D(C  42,O  45,C  43,O  40)      4.2898         0.029401   
    364. D(C  43,O  45,C  42,F  46)    107.8911         0.022251   
    365. D(C  43,O  45,C  42,C  41)    -10.5401         0.022251   
    366. D(C  43,O  45,C  42,H  38)   -134.3601         0.022251   
    367. D(C   8,H  49,H  29,C  15)     39.4794         0.001500   
    368. D(C  13,H  49,H  29,C  15)    -37.4128         0.001500   
    369. D(C  50,H  49,H  29,C  15)    120.9323         0.001500   
    370. D(C   8,H  49,C  15,H  29)   -117.6836         0.001502   
    371. D(C   8,H  49,C  15,C  13)    121.5337         0.001502   
    372. D(C  13,H  49,C  15,H  29)    120.7827         0.001502   
    373. D(C  50,H  49,C  15,H  29)   -149.5221         0.001502   
    374. D(C  50,H  49,C  15,C  13)     89.6952         0.001502   
    375. D(C  50,H  49,C  15,C   8)    -31.8384         0.001502   
    376. D(C   8,H  49,C  13,C  15)    -32.8752         0.001500   
    377. D(C   8,H  49,C  13,C   6)     88.5875         0.001500   
    378. D(C  15,H  49,C  13,H  27)   -114.6559         0.001500   
    379. D(C  15,H  49,C  13,C   6)    121.4628         0.001500   
    380. D(C  50,H  49,C  13,H  27)     99.2079         0.001500   
    381. D(C  50,H  49,C  13,C  15)   -146.1362         0.001500   
    382. D(C  50,H  49,C  13,C   6)    -24.6734         0.001500   
    383. D(C  13,H  49,C  15,C   8)   -121.5337         0.001502   
    384. D(C  13,H  49,C   8,C   2)    -86.9131         0.001500   
    385. D(C  13,H  49,C   8,O   0)    144.7183         0.001500   
    386. D(C  15,H  49,C   8,C   2)   -119.6051         0.001500   
    387. D(C  15,H  49,C   8,O   0)    112.0263         0.001500   
    388. D(C  50,H  49,C   8,C  15)    166.6939         0.001500   
    389. D(C  50,H  49,C   8,C   2)     47.0889         0.001500   
    390. D(C  50,H  49,C   8,O   0)    -81.2798         0.001500   
    391. D(C  52,C  50,H  49,C   8)     36.1804         0.155259   
    392. D(C  52,C  50,H  49,C  13)    118.1341         0.155259   
    393. D(C  52,C  50,H  49,C  15)     57.4084         0.155259   
    394. D(H  48,C  50,H  49,H  29)     91.0807         0.155259   
    395. D(H  48,C  50,H  49,C   8)    162.0508         0.155259   
    396. D(H  48,C  50,H  49,C  13)   -115.9954         0.155259   
    397. D(H  48,C  50,H  49,C  15)   -176.7212         0.155259   
    398. D(H  53,C  52,C  50,O  54)    136.0744         0.011599   
    399. D(H  53,C  52,C  50,H  49)     18.8905         0.011599   
    400. D(H  53,C  52,C  50,H  48)   -106.6212         0.011599   
    401. D(F  51,C  52,C  50,O  54)   -100.1275         0.011599   
    402. D(F  51,C  52,C  50,H  49)    142.6885         0.011599   
    403. D(F  51,C  52,C  50,H  48)     17.1768         0.011599   
    404. D(H  32,H  53,C  52,O  55)     50.4933         0.158137   
    405. D(H  32,H  53,C  52,F  51)    168.5208         0.158137   
    406. D(H  32,H  53,C  52,C  50)    -66.3779         0.158137   
    407. D(O  44,H  53,C  52,O  55)    -18.7697         0.158137   
    408. D(O  44,H  53,C  52,F  51)     99.2579         0.158137   
    409. D(O  44,H  53,C  52,C  50)   -135.6408         0.158137   
    410. D(H  32,H  53,O  44,C  43)   -135.2565         0.001503   
    411. D(C  52,H  53,O  44,H  32)    112.2853         0.001503   
    412. D(C  52,H  53,O  44,C  43)    -22.9712         0.001503   
    413. D(O  44,H  53,H  32,O   0)   -160.5802         0.001500   
    414. D(C  52,H  53,H  32,O  44)   -123.8292         0.001500   
    415. D(C  52,H  53,H  32,O   0)     75.5905         0.001500   
    416. D(H  31,O  54,C  50,H  48)    103.2452         0.018925   
    417. D(C  56,O  54,C  50,C  52)    -12.8727         0.018925   
    418. D(C  56,O  54,C  50,H  49)    106.1640         0.018925   
    419. D(C  56,O  54,C  50,H  48)   -132.1436         0.018925   
    420. D(C  56,O  54,H  31,O  57)     11.5841         0.001500   
    421. D(C  56,O  54,H  31,C  17)    -80.7185         0.001500   
    422. D(C  50,O  54,H  31,O  57)    140.3955         0.001500   
    423. D(H  31,O  54,C  50,H  49)    -18.4473         0.018925   
    424. D(C  50,O  54,H  31,C  17)     48.0930         0.001500   
    425. D(H  20,O  55,C  52,H  53)    -55.2157         0.026430   
    426. D(H  20,O  55,C  52,F  51)   -172.9980         0.026430   
    427. D(H  20,O  55,C  52,C  50)     69.3306         0.026430   
    428. D(C  56,O  55,C  52,H  53)   -138.7805         0.026430   
    429. D(C  56,O  55,C  52,F  51)    103.4372         0.026430   
    430. D(C  56,O  55,C  52,C  50)    -14.2342         0.026430   
    431. D(C  56,O  55,H  20,O  57)    -23.3580         0.001500   
    432. D(C  56,O  55,H  20,C   5)    160.5830         0.001500   
    433. D(C  52,O  55,H  20,C  56)    -98.3180         0.001500   
    434. D(C  52,O  55,H  20,O  57)   -121.6759         0.001500   
    435. D(C  52,O  55,H  20,C   5)     62.2650         0.001500   
    436. D(H  20,C  56,O  55,C  52)    138.5411         0.036286   
    437. D(O  57,C  56,O  55,H  20)     47.4761         0.036286   
    438. D(O  57,C  56,O  55,C  52)   -173.9828         0.036286   
    439. D(O  54,C  56,O  55,C  52)      6.7422         0.036286   
    440. D(H  20,C  56,O  54,C  50)    -92.6830         0.038955   
    441. D(O  57,C  56,O  54,H  31)    -26.4222         0.038955   
    442. D(O  57,C  56,O  54,C  50)   -174.6438         0.038955   
    443. D(O  55,C  56,O  54,H  31)    152.8390         0.038955   
    444. D(O  55,C  56,O  54,C  50)      4.6174         0.038955   
    445. D(O  57,C  56,H  20,C   5)   -161.5773         0.001501   
    446. D(O  55,C  56,H  20,O  57)    136.0743         0.001501   
    447. D(O  54,C  56,O  55,H  20)   -131.7989         0.036286   
    448. D(O  55,C  56,H  20,C   5)    -25.5029         0.001501   
    449. D(O  54,C  56,H  20,O  55)    110.0800         0.001501   
    450. D(O  54,C  56,H  20,O  57)   -113.8457         0.001501   
    451. D(O  54,C  56,H  20,C   5)     84.5771         0.001501   
    452. D(H  31,O  57,C  56,H  20)    -98.8563         0.140684   
    453. D(H  31,O  57,C  56,O  54)     24.4422         0.140684   
    454. D(H  20,O  57,C  56,O  55)    -55.8668         0.140684   
    455. D(H  20,O  57,C  56,O  54)    123.2985         0.140684   
    456. D(H  20,O  57,H  31,O  54)   -105.3200         0.001500   
    457. D(H  20,O  57,H  31,C  17)     22.6879         0.001500   
    458. D(C  56,O  57,H  31,O  54)    -13.0569         0.001500   
    459. D(C  56,O  57,H  31,C  17)    114.9510         0.001500   
    460. D(H  31,O  57,H  20,O  55)    114.5214         0.001504   
    461. D(H  31,O  57,H  20,C  56)     89.2111         0.001504   
    462. D(H  31,O  57,H  20,C   5)    123.6983         0.001504   
    463. D(H  31,O  57,C  56,O  55)   -154.7231         0.140684   
    464. D(C  56,O  57,H  20,O  55)     25.3103         0.001504   
    465. D(C  56,O  57,H  20,C   5)     34.4872         0.001504   
    -----------------------------------------------------------------

Number of atoms                         .... 58
Number of degrees of freedom            .... 465


         *************************************************************
         *                GEOMETRY OPTIMIZATION CYCLE   1            *
         *************************************************************
---------------------------------
CARTESIAN COORDINATES (ANGSTROEM)
---------------------------------
  O      1.965803    1.181702    2.750042
  O     -3.640869   -1.863638    2.157244
  C      1.429064    0.110809    0.616060
  C      0.100992   -0.392185    1.034354
  C     -2.239289   -0.813600    0.476564
  C     -0.980267   -0.325900    0.152946
  C      3.108601    0.287007   -1.158316
  C      1.867158   -0.121849   -0.690792
  C      2.287766    0.817653    1.477446
  C     -0.107991   -0.993385    2.277904
  C     -2.414852   -1.408215    1.731185
  C     -3.388190   -0.674404   -0.493417
  C      3.525510    0.011321   -2.587337
  C      3.956293    0.938675   -0.265701
  C     -1.352309   -1.499059    2.620809
  C      3.552558    1.199324    1.033884
  C     -3.999877   -1.996039   -0.870080
  C      2.435536    0.295895   -3.578364
  C     -5.278197   -2.322444   -0.703383
  C      1.927313   -0.596763   -4.417891
  H     -0.849750    0.152001   -0.808384
  H      1.209486   -0.653092   -1.366145
  H      0.712051   -1.087593    2.976339
  H     -4.166988   -0.024602   -0.079968
  H     -3.015705   -0.185930   -1.395895
  H      3.847277   -1.030176   -2.691138
  H      4.398867    0.630533   -2.816160
  H      4.938904    1.259141   -0.591689
  H     -1.509679   -1.980885    3.576823
  H      4.194917    1.731726    1.723279
  H     -3.313740   -2.724586   -1.293531
  H      2.034202    1.304867   -3.562376
  H      1.005423    1.240227    2.876997
  H     -4.168651   -2.138050    1.390397
  H     -5.660787   -3.292189   -0.993973
  H     -5.992821   -1.616055   -0.292666
  H      1.131807   -0.338712   -5.105172
  H      2.291240   -1.618512   -4.445778
  H     -4.444883    0.796452    2.241811
  H     -3.556368   -0.355814    4.166889
  O     -2.184754    1.162739    4.461785
  C     -3.541072    0.726336    4.268464
  C     -3.958578    1.427700    2.980214
  C     -1.754263    1.793871    3.363256
  O     -0.644787    2.200004    3.192560
  O     -2.751675    1.915768    2.451507
  F     -4.787489    2.490978    3.243255
  H     -4.140143    1.053986    5.114583
  H      1.949435    4.825827   -0.644731
  H      2.345554    3.206117    0.021106
  C      1.577851    3.825146   -0.438720
  F     -0.274842    5.104733    0.360409
  C      0.301655    3.852608    0.394258
  H      0.401245    3.554337    1.433812
  O      1.160175    3.216083   -1.671582
  O     -0.546084    2.953558   -0.269638
  C     -0.057409    2.669359   -1.509342
  O     -0.635660    2.014619   -2.318783

----------------------------
CARTESIAN COORDINATES (A.U.)
----------------------------
  NO LB      ZA    FRAG     MASS         X           Y           Z
   0 O     8.0000    0    15.999    3.714829    2.233093    5.196827
   1 O     8.0000    0    15.999   -6.880245   -3.521765    4.076600
   2 C     6.0000    0    12.011    2.700540    0.209398    1.164185
   3 C     6.0000    0    12.011    0.190847   -0.741122    1.954646
   4 C     6.0000    0    12.011   -4.231642   -1.537481    0.900575
   5 C     6.0000    0    12.011   -1.852435   -0.615862    0.289026
   6 C     6.0000    0    12.011    5.874404    0.542365   -2.188901
   7 C     6.0000    0    12.011    3.528418   -0.230261   -1.305407
   8 C     6.0000    0    12.011    4.323250    1.545141    2.791969
   9 C     6.0000    0    12.011   -0.204073   -1.877225    4.304615
  10 C     6.0000    0    12.011   -4.563409   -2.661140    3.271465
  11 C     6.0000    0    12.011   -6.402752   -1.274439   -0.932423
  12 C     6.0000    0    12.011    6.662248    0.021394   -4.889359
  13 C     6.0000    0    12.011    7.476310    1.773839   -0.502101
  14 C     6.0000    0    12.011   -2.555493   -2.832811    4.952612
  15 C     6.0000    0    12.011    6.713361    2.266395    1.953757
  16 C     6.0000    0    12.011   -7.558673   -3.771967   -1.644213
  17 C     6.0000    0    12.011    4.602496    0.559160   -6.762128
  18 C     6.0000    0    12.011   -9.974346   -4.388782   -1.329201
  19 C     6.0000    0    12.011    3.642094   -1.127719   -8.348604
  20 H     1.0000    0     1.008   -1.605795    0.287240   -1.527625
  21 H     1.0000    0     1.008    2.285598   -1.234165   -2.581640
  22 H     1.0000    0     1.008    1.345581   -2.055252    5.624466
  23 H     1.0000    0     1.008   -7.874466   -0.046492   -0.151117
  24 H     1.0000    0     1.008   -5.698857   -0.351357   -2.637858
  25 H     1.0000    0     1.008    7.270301   -1.946750   -5.085515
  26 H     1.0000    0     1.008    8.312654    1.191534   -5.321771
  27 H     1.0000    0     1.008    9.333176    2.379432   -1.118129
  28 H     1.0000    0     1.008   -2.852880   -3.743330    6.759216
  29 H     1.0000    0     1.008    7.927245    3.272488    3.256526
  30 H     1.0000    0     1.008   -6.262062   -5.148721   -2.444418
  31 H     1.0000    0     1.008    3.844084    2.465841   -6.731914
  32 H     1.0000    0     1.008    1.899974    2.343690    5.436737
  33 H     1.0000    0     1.008   -7.877609   -4.040328    2.627470
  34 H     1.0000    0     1.008  -10.697337   -6.221336   -1.878337
  35 H     1.0000    0     1.008  -11.324791   -3.053901   -0.553059
  36 H     1.0000    0     1.008    2.138805   -0.640073   -9.647378
  37 H     1.0000    0     1.008    4.329816   -3.058544   -8.401302
  38 H     1.0000    0     1.008   -8.399611    1.505076    4.236409
  39 H     1.0000    0     1.008   -6.720561   -0.672392    7.874280
  40 O     8.0000    0    15.999   -4.128587    2.197258    8.431553
  41 C     6.0000    0    12.011   -6.691655    1.372577    8.066227
  42 C     6.0000    0    12.011   -7.480628    2.697962    5.631788
  43 C     6.0000    0    12.011   -3.315076    3.389926    6.355632
  44 O     8.0000    0    15.999   -1.218471    4.157406    6.033064
  45 O     8.0000    0    15.999   -5.199911    3.620278    4.632677
  46 F     9.0000    0    18.998   -9.047043    4.707266    6.128865
  47 H     1.0000    0     1.008   -7.823736    1.991745    9.665161
  48 H     1.0000    0     1.008    3.683899    9.119491   -1.218366
  49 H     1.0000    0     1.008    4.432455    6.058684    0.039885
  50 C     6.0000    0    12.011    2.981706    7.228478   -0.829061
  51 F     9.0000    0    18.998   -0.519377    9.646547    0.681075
  52 C     6.0000    0    12.011    0.570046    7.280374    0.745039
  53 H     1.0000    0     1.008    0.758244    6.716723    2.709512
  54 O     8.0000    0    15.999    2.192413    6.077516   -3.158833
  55 O     8.0000    0    15.999   -1.031949    5.581416   -0.509541
  56 C     6.0000    0    12.011   -0.108488    5.044358   -2.852243
  57 O     8.0000    0    15.999   -1.201223    3.807078   -4.381865

--------------------------------
INTERNAL COORDINATES (ANGSTROEM)
--------------------------------
 O      0   0   0     0.000000000000     0.00000000     0.00000000
 O      1   0   0     6.407829116138     0.00000000     0.00000000
 C      1   2   0     2.447198232783    61.27884157     0.00000000
 C      3   1   2     1.480455521477    95.68437737     0.28800218
 C      2   1   3     2.427280772350    49.70141092   333.51286024
 C      5   2   1     1.388422248639   146.82019924    17.76904787
 C      3   1   2     2.449551315832   116.73066870   180.08230651
 C      7   3   1     1.388135946108    28.55639404   182.81205532
 C      1   2   3     1.362237616398    89.61991462   358.26535620
 C      4   3   1     1.396971943600   122.13591243   316.16267430
 C      2   1   3     1.375519613036    24.69145284     0.17027989
 C      5   2   1     1.510037638326    92.59754023   201.13619073
 C      7   3   1     1.513907821967   149.25733039   183.25832100
 C      7   3   1     1.392844797956    89.23951700     3.80068267
 C     10   4   3     1.386224496413   120.76185353   182.41180412
 C     14   7   3     1.385589792403   120.78083077   358.80265883
 C     12   5   2     1.504245390261   112.90754026   299.93206101
 C     13   7   3     1.500386652456   112.88494655    43.74313518
 C     17  12   5     1.329822599712   125.11056895   122.45332803
 C     18  13   7     1.326624784518   124.65778449   238.74142198
 H      6   5   2     1.081470864045   118.15437933   183.84965636
 H      8   7   3     1.082060047950   118.55229655   180.52288345
 H     10   4   3     1.081274538338   119.93640731     1.05367463
 H     12   5   2     1.095312158959   110.68295012    62.51699408
 H     12   5   2     1.091703857706   108.21984855   179.24176277
 H     13   7   3     1.095000221365   110.09679610   281.24219677
 H     13   7   3     1.094776389525   108.29955273   165.18766189
 H     14   7   3     1.083739452711   119.82776449   179.63951469
 H     15  10   4     1.082074084294   120.76556751   178.87530268
 H     16  14   7     1.082286476826   121.13385526   181.86993480
 H     17  12   5     1.086680852902   115.45890413   303.51461878
 H     18  13   7     1.085978525808   115.78301703    56.81938136
 H      1   2   3     0.970501071363    34.40284334   130.21387993
 H      2   1   3     0.970520094526   133.10167625   340.51961177
 H     19  17  12     1.082231437184   121.74284686   180.05924598
 H     19  17  12     1.085523879803   121.36790604     1.72130337
 H     20  18  13     1.082486264524   121.52801875   179.25938014
 H     20  18  13     1.084984204340   121.42816455   359.25497364
 H     24  12   5     2.478308228664   129.04294648   347.14709731
 H     39  24  12     2.413110546404   123.22238544   335.04558482
 O     40  39  24     2.067435618246    90.42057118   110.90993331
 C     40  39  24     1.087014811387    66.69415284   145.41764840
 C     39  24  12     1.086372266163   141.17596952    64.74512751
 C     41  40  39     1.338065434983   116.28217186   328.55929737
 O     44  41  40     1.193740575887   125.23165295   216.24536392
 O     44  41  40     1.356825361894   110.94976954    36.18051204
 F     43  39  24     1.373624819860   108.04778821   116.08975423
 H     42  40  39     1.087271152855   111.40554028   119.29958709
 H     16  14   7     4.305725110784    84.33395411   272.13514821
 H     49  16  14     1.795468827909     9.41793396    95.79472713
 C     49  16  14     1.087142074867    43.78980273    92.73876945
 F     51  49  16     2.389230621152    80.52915128   135.95231148
 C     52  51  49     1.378880663756    36.64742253   196.12757808
 H     53  52  51     1.086074089111   108.13281559   128.31144321
 O     51  49  16     1.437135851275   109.07907450   240.53818303
 O     53  52  51     1.402750552067   108.52475252   246.90705613
 C     55  51  49     1.344522419552   109.39063661   227.85636762
 O     57  55  51     1.190904569069   125.53897283   185.35615873

---------------------------
INTERNAL COORDINATES (A.U.)
---------------------------
 O      0   0   0     0.000000000000     0.00000000     0.00000000
 O      1   0   0    12.109042142467     0.00000000     0.00000000
 C      1   2   0     4.624534455376    61.27884157     0.00000000
 C      3   1   2     2.797655489043    95.68437737     0.28800218
 C      2   1   3     4.586895909875    49.70141092   333.51286024
 C      5   2   1     2.623737808171   146.82019924    17.76904787
 C      3   1   2     4.628981137909   116.73066870   180.08230651
 C      7   3   1     2.623196774796    28.55639404   182.81205532
 C      1   2   3     2.574256024318    89.61991462   358.26535620
 C      4   3   1     2.639894390175   122.13591243   316.16267430
 C      2   1   3     2.599355360476    24.69145284     0.17027989
 C      5   2   1     2.853557588349    92.59754023   201.13619073
 C      7   3   1     2.860871175519   149.25733039   183.25832100
 C      7   3   1     2.632095215194    89.23951700     3.80068267
 C     10   4   3     2.619584658353   120.76185353   182.41180412
 C     14   7   3     2.618385241599   120.78083077   358.80265883
 C     12   5   2     2.842611825807   112.90754026   299.93206101
 C     13   7   3     2.835319868132   112.88494655    43.74313518
 C     17  12   5     2.513000520155   125.11056895   122.45332803
 C     18  13   7     2.506957525212   124.65778449   238.74142198
 H      6   5   2     2.043683754861   118.15437933   183.84965636
 H      8   7   3     2.044797151083   118.55229655   180.52288345
 H     10   4   3     2.043312753040   119.93640731     1.05367463
 H     12   5   2     2.069840011587   110.68295012    62.51699408
 H     12   5   2     2.063021310410   108.21984855   179.24176277
 H     13   7   3     2.069250534963   110.09679610   281.24219677
 H     13   7   3     2.068827554085   108.29955273   165.18766189
 H     14   7   3     2.047970766149   119.82776449   179.63951469
 H     15  10   4     2.044823675929   120.76556751   178.87530268
 H     16  14   7     2.045225039648   121.13385526   181.86993480
 H     17  12   5     2.053529206961   115.45890413   303.51461878
 H     18  13   7     2.052202001097   115.78301703    56.81938136
 H      1   2   3     1.833981237554    34.40284334   130.21387993
 H      2   1   3     1.834017186122   133.10167625   340.51961177
 H     19  17  12     2.045121029798   121.74284686   180.05924598
 H     19  17  12     2.051342844659   121.36790604     1.72130337
 H     20  18  13     2.045602583681   121.52801875   179.25938014
 H     20  18  13     2.050323005833   121.42816455   359.25497364
 H     24  12   5     4.683323827618   129.04294648   347.14709731
 H     39  24  12     4.560118063580   123.22238544   335.04558482
 O     40  39  24     3.906887117999    90.42057118   110.90993331
 C     40  39  24     2.054160297037    66.69415284   145.41764840
 C     39  24  12     2.052946062535   141.17596952    64.74512751
 C     41  40  39     2.528577221384   116.28217186   328.55929737
 O     44  41  40     2.255842763375   125.23165295   216.24536392
 O     44  41  40     2.564028345538   110.94976954    36.18051204
 F     43  39  24     2.595774720292   108.04778821   116.08975423
 H     42  40  39     2.054644712208   111.40554028   119.29958709
 H     16  14   7     8.136641267330    84.33395411   272.13514821
 H     49  16  14     3.392944366741     9.41793396    95.79472713
 C     49  16  14     2.054400790161    43.78980273    92.73876945
 F     51  49  16     4.514991544757    80.52915128   135.95231148
 C     52  51  49     2.605706825859    36.64742253   196.12757808
 H     53  52  51     2.052382589567   108.13281559   128.31144321
 O     51  49  16     2.715793176150   109.07907450   240.53818303
 O     53  52  51     2.650814377613   108.52475252   246.90705613
 C     55  51  49     2.540779153870   109.39063661   227.85636762
 O     57  55  51     2.250483487177   125.53897283   185.35615873

---------------------
BASIS SET INFORMATION
---------------------
There are 4 groups of distinct atoms

 Group   1 Type O   : 11s6p2d1f contracted to 5s3p2d1f pattern {62111/411/11/1}
 Group   2 Type C   : 11s6p2d1f contracted to 5s3p2d1f pattern {62111/411/11/1}
 Group   3 Type H   : 5s1p contracted to 3s1p pattern {311/1}
 Group   4 Type F   : 11s6p2d1f contracted to 5s3p2d1f pattern {62111/411/11/1}

Atom   0O    basis set group =>   1
Atom   1O    basis set group =>   1
Atom   2C    basis set group =>   2
Atom   3C    basis set group =>   2
Atom   4C    basis set group =>   2
Atom   5C    basis set group =>   2
Atom   6C    basis set group =>   2
Atom   7C    basis set group =>   2
Atom   8C    basis set group =>   2
Atom   9C    basis set group =>   2
Atom  10C    basis set group =>   2
Atom  11C    basis set group =>   2
Atom  12C    basis set group =>   2
Atom  13C    basis set group =>   2
Atom  14C    basis set group =>   2
Atom  15C    basis set group =>   2
Atom  16C    basis set group =>   2
Atom  17C    basis set group =>   2
Atom  18C    basis set group =>   2
Atom  19C    basis set group =>   2
Atom  20H    basis set group =>   3
Atom  21H    basis set group =>   3
Atom  22H    basis set group =>   3
Atom  23H    basis set group =>   3
Atom  24H    basis set group =>   3
Atom  25H    basis set group =>   3
Atom  26H    basis set group =>   3
Atom  27H    basis set group =>   3
Atom  28H    basis set group =>   3
Atom  29H    basis set group =>   3
Atom  30H    basis set group =>   3
Atom  31H    basis set group =>   3
Atom  32H    basis set group =>   3
Atom  33H    basis set group =>   3
Atom  34H    basis set group =>   3
Atom  35H    basis set group =>   3
Atom  36H    basis set group =>   3
Atom  37H    basis set group =>   3
Atom  38H    basis set group =>   3
Atom  39H    basis set group =>   3
Atom  40O    basis set group =>   1
Atom  41C    basis set group =>   2
Atom  42C    basis set group =>   2
Atom  43C    basis set group =>   2
Atom  44O    basis set group =>   1
Atom  45O    basis set group =>   1
Atom  46F    basis set group =>   4
Atom  47H    basis set group =>   3
Atom  48H    basis set group =>   3
Atom  49H    basis set group =>   3
Atom  50C    basis set group =>   2
Atom  51F    basis set group =>   4
Atom  52C    basis set group =>   2
Atom  53H    basis set group =>   3
Atom  54O    basis set group =>   1
Atom  55O    basis set group =>   1
Atom  56C    basis set group =>   2
Atom  57O    basis set group =>   1
---------------------------------
AUXILIARY/J BASIS SET INFORMATION
---------------------------------
There are 4 groups of distinct atoms

 Group   1 Type O   : 12s5p4d2f1g contracted to 6s4p3d1f1g pattern {711111/2111/211/2/1}
 Group   2 Type C   : 12s5p4d2f1g contracted to 6s4p3d1f1g pattern {711111/2111/211/2/1}
 Group   3 Type H   : 5s2p1d contracted to 3s1p1d pattern {311/2/1}
 Group   4 Type F   : 12s5p4d2f1g contracted to 6s4p3d1f1g pattern {711111/2111/211/2/1}

Atom   0O    basis set group =>   1
Atom   1O    basis set group =>   1
Atom   2C    basis set group =>   2
Atom   3C    basis set group =>   2
Atom   4C    basis set group =>   2
Atom   5C    basis set group =>   2
Atom   6C    basis set group =>   2
Atom   7C    basis set group =>   2
Atom   8C    basis set group =>   2
Atom   9C    basis set group =>   2
Atom  10C    basis set group =>   2
Atom  11C    basis set group =>   2
Atom  12C    basis set group =>   2
Atom  13C    basis set group =>   2
Atom  14C    basis set group =>   2
Atom  15C    basis set group =>   2
Atom  16C    basis set group =>   2
Atom  17C    basis set group =>   2
Atom  18C    basis set group =>   2
Atom  19C    basis set group =>   2
Atom  20H    basis set group =>   3
Atom  21H    basis set group =>   3
Atom  22H    basis set group =>   3
Atom  23H    basis set group =>   3
Atom  24H    basis set group =>   3
Atom  25H    basis set group =>   3
Atom  26H    basis set group =>   3
Atom  27H    basis set group =>   3
Atom  28H    basis set group =>   3
Atom  29H    basis set group =>   3
Atom  30H    basis set group =>   3
Atom  31H    basis set group =>   3
Atom  32H    basis set group =>   3
Atom  33H    basis set group =>   3
Atom  34H    basis set group =>   3
Atom  35H    basis set group =>   3
Atom  36H    basis set group =>   3
Atom  37H    basis set group =>   3
Atom  38H    basis set group =>   3
Atom  39H    basis set group =>   3
Atom  40O    basis set group =>   1
Atom  41C    basis set group =>   2
Atom  42C    basis set group =>   2
Atom  43C    basis set group =>   2
Atom  44O    basis set group =>   1
Atom  45O    basis set group =>   1
Atom  46F    basis set group =>   4
Atom  47H    basis set group =>   3
Atom  48H    basis set group =>   3
Atom  49H    basis set group =>   3
Atom  50C    basis set group =>   2
Atom  51F    basis set group =>   4
Atom  52C    basis set group =>   2
Atom  53H    basis set group =>   3
Atom  54O    basis set group =>   1
Atom  55O    basis set group =>   1
Atom  56C    basis set group =>   2
Atom  57O    basis set group =>   1
--------------------------------------------------------------------------
WARNING: There was an error initializing an OpenFabrics device.

  Local host:   ga00
  Local device: mlx5_0
--------------------------------------------------------------------------


           ************************************************************
           *        Program running with 30 parallel MPI-processes    *
           *              working on a common directory               *
           ************************************************************
------------------------------------------------------------------------------
                             ORCA STARTUP CALCULATIONS
                           -- RI-GTO INTEGRALS CHOSEN --
------------------------------------------------------------------------------
------------------------------------------------------------------------------
                   ___                                                        
                  /   \      - P O W E R E D   B Y -                         
                 /     \                                                     
                 |  |  |   _    _      __       _____    __    __             
                 |  |  |  | |  | |    /  \     |  _  \  |  |  /  |          
                  \  \/   | |  | |   /    \    | | | |  |  | /  /          
                 / \  \   | |__| |  /  /\  \   | |_| |  |  |/  /          
                |  |  |   |  __  | /  /__\  \  |    /   |      \           
                |  |  |   | |  | | |   __   |  |    \   |  |\   \          
                \     /   | |  | | |  |  |  |  | |\  \  |  | \   \       
                 \___/    |_|  |_| |__|  |__|  |_| \__\ |__|  \__/        
                                                                              
                      - O R C A' S   B I G   F R I E N D -                    
                                      &                                       
                       - I N T E G R A L  F E E D E R -                       
                                                                              
 v1 FN, 2020, v2 2021, v3 2022-2024                                           
------------------------------------------------------------------------------


----------------------
SHARK INTEGRAL PACKAGE
----------------------

Number of atoms                             ...     58
Number of basis functions                   ...   1198
Number of shells                            ...    470
Maximum angular momentum                    ...      3
Integral batch strategy                     ... SHARK/LIBINT Hybrid
RI-J (if used) integral strategy            ... SPLIT-RIJ (Revised 2003 algorithm where possible)
Printlevel                                  ...      1
Contraction scheme used                     ... SEGMENTED contraction
Prescreening option                         ... SCHWARTZ
   Thresh                                   ... 2.500e-11
   Tcut                                     ... 2.500e-12
   Tpresel                                  ... 2.500e-12 
Coulomb Range Separation                    ... NOT USED
Exchange Range Separation                   ... NOT USED
Multipole approximations                    ... NOT USED
Finite Nucleus Model                        ... NOT USED
CABS basis                                  ... NOT available
Auxiliary Coulomb fitting basis             ... AVAILABLE
   # of basis functions in Aux-J            ...   1930
   # of shells in Aux-J                     ...    630
   Maximum angular momentum in Aux-J        ...      4
Auxiliary J/K fitting basis                 ... NOT available
Auxiliary Correlation fitting basis         ... NOT available
Auxiliary 'external' fitting basis          ... NOT available

Checking pre-screening integrals            ... done (  0.0 sec) Dimension = 470
Check shell pair data                       ... done (  0.0 sec)
Shell pair information
Shell pair cut-off parameter TPreSel        ...   2.5e-12
Total number of shell pairs                 ...    110685
Shell pairs after pre-screening             ...     69387
Total number of primitive shell pairs       ...    340720
Primitive shell pairs kept                  ...    134381
          la=0 lb=0:  17827 shell pairs
          la=1 lb=0:  20311 shell pairs
          la=1 lb=1:   5820 shell pairs
          la=2 lb=0:   9674 shell pairs
          la=2 lb=1:   5714 shell pairs
          la=2 lb=2:   1379 shell pairs
          la=3 lb=0:   4435 shell pairs
          la=3 lb=1:   2703 shell pairs
          la=3 lb=2:   1226 shell pairs
          la=3 lb=3:    298 shell pairs

Calculating one electron integrals          ... done (  0.1 sec)
Calculating RI/J V-Matrix + Cholesky decomp.... done (  0.2 sec)
Calculating Nuclear repulsion               ... done (  0.0 sec) ENN=   3891.263532376213 Eh

Diagonalization of the overlap matrix:
Smallest eigenvalue                        ... 4.354e-06
Time for diagonalization                   ...    0.166 sec
Threshold for overlap eigenvalues          ... 1.000e-07
Number of eigenvalues below threshold      ... 0
Time for construction of square roots      ...    0.099 sec
Total time needed                          ...    0.277 sec

-------------------
DFT GRID GENERATION
-------------------

General Integration Accuracy     IntAcc      ... 4.388
Radial Grid Type                 RadialGrid  ... OptM3 with GC (2021)
Angular Grid (max. ang.)         AngularGrid ... 4 (Lebedev-302)
Angular grid pruning method      GridPruning ... 4 (adaptive)
Weight generation scheme         WeightScheme... mBecke (2022)
Basis function cutoff            BFCut       ... 1.0000e-11
Integration weight cutoff        WCut        ... 1.0000e-14
Partially contracted basis set               ... off
Rotationally invariant grid construction     ... off
Angular grids for H and He will be reduced by one unit

Total number of grid points                  ...   278466
Total number of batches                      ...     4383
Average number of points per batch           ...       63
Average number of grid points per atom       ...     4801

--------------------
COSX GRID GENERATION
--------------------

GRIDX 1
-------
General Integration Accuracy     IntAcc      ... 3.816
Radial Grid Type                 RadialGrid  ... OptM3 with GC (2021)
Angular Grid (max. ang.)         AngularGrid ... 1 (Lebedev-50)
Angular grid pruning method      GridPruning ... 4 (adaptive)
Weight generation scheme         WeightScheme... mBecke (2022)
Basis function cutoff            BFCut       ... 1.0000e-11
Integration weight cutoff        WCut        ... 1.0000e-14
Partially contracted basis set               ... on
Rotationally invariant grid construction     ... off
Angular grids for H and He will be reduced by one unit

Total number of grid points                  ...    35210
Total number of batches                      ...      310
Average number of points per batch           ...      113
Average number of grid points per atom       ...      607
UseSFitting                                  ... on

GRIDX 2
-------
General Integration Accuracy     IntAcc      ... 4.020
Radial Grid Type                 RadialGrid  ... OptM3 with GC (2021)
Angular Grid (max. ang.)         AngularGrid ... 2 (Lebedev-110)
Angular grid pruning method      GridPruning ... 4 (adaptive)
Weight generation scheme         WeightScheme... mBecke (2022)
Basis function cutoff            BFCut       ... 1.0000e-11
Integration weight cutoff        WCut        ... 1.0000e-14
Partially contracted basis set               ... on
Rotationally invariant grid construction     ... off
Angular grids for H and He will be reduced by one unit

Total number of grid points                  ...    76453
Total number of batches                      ...      630
Average number of points per batch           ...      121
Average number of grid points per atom       ...     1318
UseSFitting                                  ... on

GRIDX 3
-------
General Integration Accuracy     IntAcc      ... 4.338
Radial Grid Type                 RadialGrid  ... OptM3 with GC (2021)
Angular Grid (max. ang.)         AngularGrid ... 3 (Lebedev-194)
Angular grid pruning method      GridPruning ... 4 (adaptive)
Weight generation scheme         WeightScheme... mBecke (2022)
[...]
   435. D(C  52,O  55,H  20,C   5)     61.23  0.000100   -0.75     60.48   
   436. D(H  20,C  56,O  55,C  52)    138.74 -0.000046    0.18    138.91   
   437. D(O  57,C  56,O  55,H  20)     46.80 -0.000022   -0.17     46.62   
   438. D(O  57,C  56,O  55,C  52)   -174.47 -0.000068    0.00   -174.46   
   439. D(O  54,C  56,O  55,C  52)      6.68  0.000026   -0.02      6.66   
   440. D(H  20,C  56,O  54,C  50)    -90.92 -0.000014    1.07    -89.85   
   441. D(O  57,C  56,O  54,H  31)    -26.81  0.000051   -0.37    -27.17   
   442. D(O  57,C  56,O  54,C  50)   -174.00  0.000024    0.23   -173.76   
   443. D(O  55,C  56,O  54,H  31)    152.03 -0.000046   -0.34    151.68   
   444. D(O  55,C  56,O  54,C  50)      4.84 -0.000073    0.25      5.09   
   445. D(O  57,C  56,H  20,C   5)   -163.12  0.000022   -0.57   -163.69   
   446. D(O  55,C  56,H  20,O  57)    136.90 -0.000018    0.31    137.22   
   447. D(O  54,C  56,O  55,H  20)   -132.06  0.000072   -0.20   -132.26   
   448. D(O  55,C  56,H  20,C   5)    -26.22  0.000004   -0.25    -26.47   
   449. D(O  54,C  56,H  20,O  55)    108.89 -0.000080   -0.53    108.35   
   450. D(O  54,C  56,H  20,O  57)   -114.21 -0.000098   -0.22   -114.43   
   451. D(O  54,C  56,H  20,C   5)     82.67 -0.000076   -0.79     81.88   
   452. D(H  31,O  57,C  56,H  20)    -99.23  0.000070   -0.22    -99.45   
   453. D(H  31,O  57,C  56,O  54)     25.07 -0.000054    0.51     25.58   
   454. D(H  20,O  57,C  56,O  55)    -54.38 -0.000013    0.70    -53.68   
   455. D(H  20,O  57,C  56,O  54)    124.30 -0.000124    0.73    125.03   
   456. D(H  20,O  57,H  31,O  54)   -104.98 -0.000031    0.23   -104.75   
   457. D(H  20,O  57,H  31,C  17)     22.78 -0.000056    0.21     22.99   
   458. D(C  56,O  57,H  31,O  54)    -13.25  0.000045   -0.20    -13.46   
   459. D(C  56,O  57,H  31,C  17)    114.51  0.000020   -0.22    114.29   
   460. D(H  31,O  57,H  20,O  55)    114.80  0.000033    0.12    114.91   
   461. D(H  31,O  57,H  20,C  56)     89.78 -0.000021    0.24     90.02   
   462. D(H  31,O  57,H  20,C   5)    122.10 -0.000095   -0.37    121.73   
   463. D(H  31,O  57,C  56,O  55)   -153.61  0.000057    0.48   -153.13   
   464. D(C  56,O  57,H  20,O  55)     25.02  0.000054   -0.13     24.89   
   465. D(C  56,O  57,H  20,C   5)     32.32 -0.000074   -0.62     31.70   
    ----------------------------------------------------------------------------

Geometry step timings:
Preparation and reading OPT file:      0.002 s ( 4.502 %)
Internal coordinates            :      0.000 s ( 0.128 %)
B/P matrices and projection     :      0.023 s (45.408 %)
Hessian update/contruction      :      0.004 s ( 8.546 %)
Making the step                 :      0.016 s (31.336 %)
Converting the step to Cartesian:      0.001 s ( 2.638 %)
Storing new data                :      0.000 s ( 0.066 %)
Checking convergence            :      0.000 s ( 0.162 %)
Final printing                  :      0.004 s ( 7.205 %)
Total time                      :      0.050 s
--------------------------------------------------------------------------
WARNING: There was an error initializing an OpenFabrics device.

  Local host:   ga00
  Local device: mlx5_0
--------------------------------------------------------------------------
[ga00:4168980] 29 more processes have sent help message help-mpi-btl-openib.txt / error in device init
[ga00:4168980] Set MCA parameter "orte_base_help_aggregate" to 0 to see all help / error messages

Time for energy+gradient        :     90.313 s
Time for complete geometry iter :     91.419 s

         *************************************************************
         *                GEOMETRY OPTIMIZATION CYCLE   6            *
         *************************************************************
---------------------------------
CARTESIAN COORDINATES (ANGSTROEM)
---------------------------------
  O      1.952849    1.177313    2.748482
  O     -3.636271   -1.853992    2.150229
  C      1.442355    0.104652    0.612688
  C      0.113205   -0.399677    1.024299
  C     -2.235716   -0.785807    0.480386
  C     -0.971826   -0.314406    0.150766
  C      3.133345    0.287260   -1.149270
  C      1.889263   -0.126528   -0.691151
  C      2.291207    0.816475    1.480369
  C     -0.096793   -1.009967    2.263607
  C     -2.410587   -1.398221    1.726140
  C     -3.393247   -0.602093   -0.474008
  C      3.567163    0.005564   -2.572443
  C      3.971070    0.944888   -0.251546
  C     -1.342881   -1.510165    2.607829
  C      3.555656    1.204793    1.044709
  C     -4.008975   -1.903381   -0.904346
  C      2.481950    0.253362   -3.577867
  C     -5.284983   -2.235809   -0.730747
  C      1.998855   -0.660446   -4.409408
  H     -0.849340    0.156164   -0.815020
  H      1.237450   -0.661226   -1.369523
  H      0.724468   -1.114336    2.959201
  H     -4.166015    0.024807   -0.015567
  H     -3.027120   -0.056610   -1.346190
  H      3.914294   -1.029211   -2.660751
  H      4.427963    0.642204   -2.801219
  H      4.953463    1.271329   -0.571988
  H     -1.497675   -2.004899    3.557787
  H      4.187540    1.744356    1.737992
  H     -3.331063   -2.614086   -1.368835
  H      2.063917    1.255614   -3.585732
  H      0.990439    1.241280    2.860143
  H     -4.177357   -2.093290    1.381235
  H     -5.672332   -3.193103   -1.054639
  H     -5.993966   -1.547248   -0.281687
  H      1.206874   -0.425478   -5.109077
  H      2.378564   -1.676764   -4.418852
  H     -4.489475    0.767707    2.337827
  H     -3.506313   -0.385034    4.210814
  O     -2.148909    1.150564    4.474685
  C     -3.502793    0.696464    4.323585
  C     -3.970977    1.399114    3.053770
  C     -1.758284    1.778184    3.359187
  O     -0.658268    2.193199    3.152699
  O     -2.785449    1.884956    2.478412
  F     -4.785580    2.465852    3.351184
  H     -4.083159    1.006163    5.189128
  H      1.859065    4.837998   -0.660807
  H      2.284295    3.222380   -0.003493
  C      1.507533    3.827855   -0.466384
  F     -0.386096    5.061354    0.306872
  C      0.221003    3.821767    0.349931
  H      0.310792    3.529998    1.391842
  O      1.116167    3.221527   -1.707946
  O     -0.595236    2.902496   -0.323013
  C     -0.084207    2.637618   -1.562339
  O     -0.631141    1.963946   -2.376717

----------------------------
CARTESIAN COORDINATES (A.U.)
----------------------------
  NO LB      ZA    FRAG     MASS         X           Y           Z
   0 O     8.0000    0    15.999    3.690350    2.224799    5.193878
   1 O     8.0000    0    15.999   -6.871556   -3.503536    4.063343
   2 C     6.0000    0    12.011    2.725656    0.197763    1.157813
   3 C     6.0000    0    12.011    0.213926   -0.755280    1.935645
   4 C     6.0000    0    12.011   -4.224892   -1.484959    0.907798
   5 C     6.0000    0    12.011   -1.836484   -0.594141    0.284907
   6 C     6.0000    0    12.011    5.921164    0.542843   -2.171805
   7 C     6.0000    0    12.011    3.570190   -0.239103   -1.306085
   8 C     6.0000    0    12.011    4.329753    1.542914    2.797491
   9 C     6.0000    0    12.011   -0.182912   -1.908561    4.277598
  10 C     6.0000    0    12.011   -4.555350   -2.642255    3.261931
  11 C     6.0000    0    12.011   -6.412308   -1.137792   -0.895746
  12 C     6.0000    0    12.011    6.740960    0.010514   -4.861213
  13 C     6.0000    0    12.011    7.504236    1.785579   -0.475352
  14 C     6.0000    0    12.011   -2.537677   -2.853799    4.928082
  15 C     6.0000    0    12.011    6.719216    2.276729    1.974213
  16 C     6.0000    0    12.011   -7.575865   -3.596869   -1.708967
  17 C     6.0000    0    12.011    4.690205    0.478784   -6.761189
  18 C     6.0000    0    12.011   -9.987170   -4.225067   -1.380911
  19 C     6.0000    0    12.011    3.777288   -1.248063   -8.332574
  20 H     1.0000    0     1.008   -1.605020    0.295108   -1.540165
  21 H     1.0000    0     1.008    2.338442   -1.249536   -2.588023
  22 H     1.0000    0     1.008    1.369046   -2.105790    5.592079
  23 H     1.0000    0     1.008   -7.872628    0.046878   -0.029418
  24 H     1.0000    0     1.008   -5.720427   -0.106977   -2.543931
  25 H     1.0000    0     1.008    7.396944   -1.944927   -5.028091
  26 H     1.0000    0     1.008    8.367637    1.213591   -5.293537
  27 H     1.0000    0     1.008    9.360689    2.402464   -1.080901
  28 H     1.0000    0     1.008   -2.830196   -3.788709    6.723243
  29 H     1.0000    0     1.008    7.913304    3.296355    3.284329
  30 H     1.0000    0     1.008   -6.294796   -4.939907   -2.586723
  31 H     1.0000    0     1.008    3.900237    2.372767   -6.776052
  32 H     1.0000    0     1.008    1.871658    2.345680    5.404888
  33 H     1.0000    0     1.008   -7.894060   -3.955745    2.610157
  34 H     1.0000    0     1.008  -10.719154   -6.034090   -1.992979
  35 H     1.0000    0     1.008  -11.326954   -2.923876   -0.532310
  36 H     1.0000    0     1.008    2.280661   -0.804037   -9.654757
  37 H     1.0000    0     1.008    4.494835   -3.168625   -8.350420
  38 H     1.0000    0     1.008   -8.483878    1.450756    4.417853
  39 H     1.0000    0     1.008   -6.625971   -0.727609    7.957286
  40 O     8.0000    0    15.999   -4.060849    2.174250    8.455929
  41 C     6.0000    0    12.011   -6.619319    1.316125    8.170392
  42 C     6.0000    0    12.011   -7.504059    2.643943    5.770790
  43 C     6.0000    0    12.011   -3.322675    3.360281    6.347943
  44 O     8.0000    0    15.999   -1.243947    4.144546    5.957738
  45 O     8.0000    0    15.999   -5.263736    3.562051    4.683520
  46 F     9.0000    0    18.998   -9.043436    4.659786    6.332820
  47 H     1.0000    0     1.008   -7.716052    1.901373    9.806032
  48 H     1.0000    0     1.008    3.513125    9.142492   -1.248745
  49 H     1.0000    0     1.008    4.316693    6.089416   -0.006601
  50 C     6.0000    0    12.011    2.848825    7.233598   -0.881337
  51 F     9.0000    0    18.998   -0.729615    9.564574    0.579904
  52 C     6.0000    0    12.011    0.417636    7.222093    0.661273
  53 H     1.0000    0     1.008    0.587312    6.670729    2.630199
  54 O     8.0000    0    15.999    2.109250    6.087803   -3.227550
  55 O     8.0000    0    15.999   -1.124833    5.484922   -0.610407
  56 C     6.0000    0    12.011   -0.159127    4.984375   -2.952393
  57 O     8.0000    0    15.999   -1.192683    3.711321   -4.491345

--------------------------------
INTERNAL COORDINATES (ANGSTROEM)
--------------------------------
 O      0   0   0     0.000000000000     0.00000000     0.00000000
 O      1   0   0     6.386312008461     0.00000000     0.00000000
 C      1   2   0     2.443935523713    61.77052609     0.00000000
 C      3   1   2     1.480004087722    95.39981611     0.15635272
 C      2   1   3     2.427127414986    49.49915487   332.59052365
 C      5   2   1     1.388628040744   146.92105764    19.48168575
 C      3   1   2     2.448936391181   116.85942986   179.81287461
 C      7   3   1     1.388824647625    28.58829442   182.93385648
 C      1   2   3     1.361176305578    90.25478633   358.37621661
 C      4   3   1     1.397296566918   122.03733135   315.49917962
 C      2   1   3     1.374728735171    24.66622432   359.71780175
 C      5   2   1     1.511455121563    92.63640848   202.53906181
 C      7   3   1     1.514256448568   149.33351307   182.62565237
 C      7   3   1     1.392898593717    89.24279641     3.76305374
 C     10   4   3     1.386153461513   120.86126119   181.98164190
 C     14   7   3     1.385783103000   120.73861810   358.80920402
 C     12   5   2     1.502551816934   112.91798555   298.46150235
 C     13   7   3     1.499989343589   113.07702239    43.18431395
 C     17  12   5     1.329977414798   124.90691534   121.89688672
 C     18  13   7     1.326607487763   124.73730571   238.98187086
 H      6   5   2     1.081287671717   117.57139494   181.83192601
 H      8   7   3     1.082104992353   118.68607362   180.61583806
 H     10   4   3     1.081301219280   119.90538774     0.72093823
 H     12   5   2     1.095601165902   110.21260217    60.68606773
 H     12   5   2     1.091926534058   107.95666488   176.69076936
 H     13   7   3     1.095014694174   110.02380759   280.59015343
 H     13   7   3     1.094818454087   108.26836880   164.61633999
 H     14   7   3     1.083671014590   119.79250759   179.73851658
 H     15  10   4     1.082193974972   120.76619306   178.43688328
 H     16  14   7     1.082149616508   121.18066160   182.07329943
 H     17  12   5     1.086469971224   115.67548348   303.33095321
 H     18  13   7     1.085966427849   115.83730945    57.40983078
 H      1   2   3     0.970976035857    34.37005225   128.96730233
 H      2   1   3     0.970251542125   132.79483575   337.20778098
 H     19  17  12     1.082292325523   121.69471578   180.51485571
 H     19  17  12     1.085554253428   121.47039178     2.24951370
 H     20  18  13     1.082580489071   121.46717201   179.41848517
 H     20  18  13     1.084974532278   121.55069195   359.46502020
 H     24  12   5     2.488974158123   131.15478485   347.05685246
 H     39  24  12     2.409045431943   122.63398462   338.81524872
 O     40  39  24     2.066454703460    90.67477159   107.32911797
 C     40  39  24     1.087367188887    66.79832109   141.64332670
 C     39  24  12     1.086319312073   137.27434841    65.51282792
 C     41  40  39     1.338219313900   115.70999043   327.33919488
 O     44  41  40     1.193695439274   125.18657390   216.54242156
 O     44  41  40     1.357288852552   110.91070214    36.52578494
 F     43  39  24     1.374759298087   108.10545132   116.21418888
 H     42  40  39     1.087153826096   111.35686290   118.48768941
 H     16  14   7     4.357451859214    84.66257005   273.02924894
 H     49  16  14     1.795300890343     9.64427216    93.77695341
 C     49  16  14     1.087090160947    44.03876481    91.91127640
 F     51  49  16     2.388571669289    80.46781399   136.04363230
 C     52  51  49     1.380941690401    36.67920176   196.54188612
 H     53  52  51     1.085711691551   107.90908342   128.38609177
 O     51  49  16     1.436063635530   109.01601190   240.19241737
 O     53  52  51     1.401484975918   108.52813787   246.87891508
 C     55  51  49     1.342776376296   109.47990617   227.34943720
 O     57  55  51     1.190034106578   125.64877797   186.23661832

---------------------------
INTERNAL COORDINATES (A.U.)
---------------------------
 O      0   0   0     0.000000000000     0.00000000     0.00000000
 O      1   0   0    12.068380701764     0.00000000     0.00000000
 C      1   2   0     4.618368828779    61.77052609     0.00000000
 C      3   1   2     2.796802402878    95.39981611     0.15635272
 C      2   1   3     4.586606106455    49.49915487   332.59052365
 C      5   2   1     2.624126698889   146.92105764    19.48168575
 C      3   1   2     4.627819098726   116.85942986   179.81287461
 C      7   3   1     2.624498232051    28.58829442   182.93385648
 C      1   2   3     2.572250437524    90.25478633   358.37621661
 C      4   3   1     2.640507839344   122.03733135   315.49917962
 C      2   1   3     2.597860817906    24.66622432   359.71780175
 C      5   2   1     2.856236243466    92.63640848   202.53906181
 C      7   3   1     2.861529984318   149.33351307   182.62565237
 C      7   3   1     2.632196874450    89.24279641     3.76305374
 C     10   4   3     2.619450421846   120.86126119   181.98164190
 C     14   7   3     2.618750545686   120.73861810   358.80920402
 C     12   5   2     2.839411436032   112.91798555   298.46150235
 C     13   7   3     2.834569063183   113.07702239    43.18431395
 C     17  12   5     2.513293078269   124.90691534   121.89688672
 C     18  13   7     2.506924839080   124.73730571   238.98187086
 H      6   5   2     2.043337571530   117.57139494   181.83192601
 H      8   7   3     2.044882083697   118.68607362   180.61583806
 H     10   4   3     2.043363172714   119.90538774     0.72093823
 H     12   5   2     2.070386155560   110.21260217    60.68606773
 H     12   5   2     2.063442107732   107.95666488   176.69076936
 H     13   7   3     2.069277884608   110.02380759   280.59015343
 H     13   7   3     2.068907044587   108.26836880   164.61633999
 H     14   7   3     2.047841436844   119.79250759   179.73851658
 H     15  10   4     2.045050236478   120.76619306   178.43688328
 H     16  14   7     2.044966411128   121.18066160   182.07329943
 H     17  12   5     2.053130698343   115.67548348   303.33095321
 H     18  13   7     2.052179139267   115.83730945    57.40983078
 H      1   2   3     1.834878790371    34.37005225   128.96730233
 H      2   1   3     1.833509695630   132.79483575   337.20778098
 H     19  17  12     2.045236092084   121.69471578   180.51485571
 H     19  17  12     2.051400242492   121.47039178     2.24951370
 H     20  18  13     2.045780642271   121.46717201   179.41848517
 H     20  18  13     2.050304728285   121.55069195   359.46502020
 H     24  12   5     4.703479513260   131.15478485   347.05685246
 H     39  24  12     4.552436110547   122.63398462   338.81524872
 O     40  39  24     3.905033457694    90.67477159   107.32911797
 C     40  39  24     2.054826194008    66.79832109   141.64332670
 C     39  24  12     2.052845993808   137.27434841    65.51282792
 C     41  40  39     2.528868010395   115.70999043   327.33919488
 O     44  41  40     2.255757467538   125.18657390   216.54242156
 O     44  41  40     2.564904215948   110.91070214    36.52578494
 F     43  39  24     2.597918573446   108.10545132   116.21418888
 H     42  40  39     2.054422996767   111.35686290   118.48768941
 H     16  14   7     8.234390655661    84.66257005   273.02924894
 H     49  16  14     3.392627010733     9.64427216    93.77695341
 C     49  16  14     2.054302687070    44.03876481    91.91127640
 F     51  49  16     4.513746306199    80.46781399   136.04363230
 C     52  51  49     2.609601601771    36.67920176   196.54188612
 H     53  52  51     2.051697757428   107.90908342   128.38609177
 O     51  49  16     2.713766982036   109.01601190   240.19241737
 O     53  52  51     2.648422785290   108.52813787   246.87891508
 C     55  51  49     2.537479610298   109.47990617   227.34943720
 O     57  55  51     2.248838551457   125.64877797   186.23661832

--------------------------------------------------------------------------
WARNING: There was an error initializing an OpenFabrics device.

  Local host:   ga00
  Local device: mlx5_0
--------------------------------------------------------------------------
[ga00:4169116] *** Process received signal ***
[ga00:4169116] Signal: Segmentation fault (11)
[ga00:4169116] Signal code: Address not mapped (1)
[ga00:4169116] Failing at address: (nil)
[ga00:4169116] [ 0] /usr/lib64/libpthread.so.0(+0x12cf0)[0x14f1475e8cf0]
[ga00:4169116] [ 1] /usr/lib64/libc.so.6(+0xc84d2)[0x14f1472d84d2]
[ga00:4169116] [ 2] /home/yongsang/.openmpi/lib/libopen-rte.so.40(+0x2b27d)[0x14f1486d327d]
[ga00:4169116] [ 3] /home/yongsang/.openmpi/lib/libopen-rte.so.40(orte_show_help_recv+0x147)[0x14f1486d36f7]
[ga00:4169116] [ 4] /home/yongsang/.openmpi/lib/libopen-rte.so.40(orte_rml_base_process_msg+0x39b)[0x14f14872f21b]
[ga00:4169116] [ 5] /home/yongsang/.openmpi/lib/libopen-pal.so.40(opal_libevent2022_event_base_loop+0x769)[0x14f14841d5b9]
[ga00:4169116] [ 6] mpirun[0x400f39]
[ga00:4169116] [ 7] /usr/lib64/libc.so.6(__libc_start_main+0xe5)[0x14f14724ad85]
[ga00:4169116] [ 8] mpirun[0x400cde]
[ga00:4169116] *** End of error message ***

ORCA finished by error termination in Startup
Calling Command: mpirun -np 30  /home/yongsang/orca_6_0_1_linux_x86-64_shared_openmpi416/orca_startup_mpi honokiol3_FEC2.int.tmp honokiol3_FEC2 
[file orca_tools/qcmsg.cpp, line 394]: 
  .... aborting the run

[file orca_tools/qcmsg.cpp, line 394]: 
  .... aborting the run

