
                                 *****************
                                 * O   R   C   A *
                                 *****************

                                            #,                                       
                                            ###                                      
                                            ####                                     
                                            #####                                    
                                            ######                                   
                                           ########,                                 
                                     ,,################,,,,,                         
                               ,,#################################,,                 
                          ,,##########################################,,             
                       ,#########################################, ''#####,          
                    ,#############################################,,   '####,        
                  ,##################################################,,,,####,       
                ,###########''''           ''''###############################       
              ,#####''   ,,,,##########,,,,          '''####'''          '####       
            ,##' ,,,,###########################,,,                        '##       
           ' ,,###''''                  '''############,,,                           
         ,,##''                                '''############,,,,        ,,,,,,###''
      ,#''                                            '''#######################'''  
     '                                                          ''''####''''         
             ,#######,   #######,   ,#######,      ##                                
            ,#'     '#,  ##    ##  ,#'     '#,    #''#        ,####,   ,####,        
            ##       ##  ##   ,#'  ##            #'  '#       #'       #'  '#        
            ##       ##  #######   ##           ,######,      #####,   #    #        
            '#,     ,#'  ##    ##  '#,     ,#' ,#      #,     #,   #   #,  ,#        
             '#######'   ##     ##  '#######'  #'      '#     '####' # '####'        



                #########################################################
                #                        -***-                          #
                #          Department of theory and spectroscopy        #
                #                                                       #
                #                      Frank Neese                      #
                #                                                       #
                #     Directorship, Architecture, Infrastructure        #
                #                    SHARK, DRIVERS                     #
                #        Core code/Algorithms in most modules           #
                #                                                       #
                #        Max Planck Institute fuer Kohlenforschung      #
                #                Kaiser Wilhelm Platz 1                 #
                #                 D-45470 Muelheim/Ruhr                 #
                #                      Germany                          #
                #                                                       #
                #                  All rights reserved                  #
                #                        -***-                          #
                #########################################################


                         Program Version 6.0.1  -  RELEASE   -


 With contributions from (in alphabetic order):
[Max-Planck-Institut fuer Kohlenforschung]                               
  Daniel Aravena         : Magnetic Suceptibility                        
  Michael Atanasov       : Ab Initio Ligand Field Theory (pilot matlab implementation)
  Alexander A. Auer      : GIAO ZORA, VPT2 properties, NMR spectrum      
  Ute Becker             : All parallelization in ORCA, NUMFREQ, NUMCALC 
  Giovanni Bistoni       : ED, misc. LED, open-shell LED, HFLD           
  Martin Brehm           : Molecular dynamics                            
  Dmytro Bykov           : pre 5.0 version of the SCF Hessian            
  Marcos Casanova-Páez   : Triplet and SCS-CIS(D). UHF-(DLPNO)-IP/EA/STEOM-CCSD. UHF-CVS-IP/STEOM-CCSD   
  Vijay G. Chilkuri      : MRCI spin determinant printing, contributions to CSF-ICE 
  Pauline Colinet        : FMM embedding                                 
  Dipayan Datta          : RHF DLPNO-CCSD density                        
  Achintya Kumar Dutta   : EOM-CC, STEOM-CC                              
  Nicolas Foglia         : Exact transition moments, OPA infrastructure, MCD improvements    
  Dmitry Ganyushin       : Spin-Orbit,Spin-Spin,Magnetic field MRCI      
  Miquel Garcia-Rates    : C-PCM and meta-GGA Hessian, CCSD/C-PCM, Gaussian charge scheme 
  Tiago L. C. Gouveia    : GS-ROHF, GS-ROCIS                             
  Yang Guo               : DLPNO-NEVPT2, F12-NEVPT2, CIM, IAO-localization        
  Andreas Hansen         : Spin unrestricted coupled pair/coupled cluster methods 
  Ingolf Harden          : AUTO-CI MPn and infrastructure                
  Benjamin Helmich-Paris : MC-RPA, TRAH-(SCF,CASSCF), AVAS, COSX integrals, SCF dyn. polar. 
  Lee Huntington         : MR-EOM, pCC                                   
  Robert Izsak           : Overlap fitted RIJCOSX, COSX-SCS-MP3, EOM     
  Riya Kayal             : Wick's Theorem for AUTO-CI, AUTO-CI UHF-CCSDT 
  Emily Kempfer          : AUTO-CI, RHF CISDT and CCSDT                  
  Christian Kollmar      : KDIIS, OOCD, Brueckner-CCSD(T), CCSD density, CASPT2, CASPT2-K, improved NEVPT2 
  Axel Koslowski         : Symmetry handling                             
  Simone Kossmann        : meta-GGA functionals, TD-DFT gradient, OOMP2, (MP2 Hessian; deprecated post 5.0) 
  Lucas Lang             : DCDCAS                                        
  Marvin Lechner         : AUTO-CI (C++ implementation), FIC-MRCC        
  Spencer Leger          : CASSCF response                               
  Dagmar Lenk            : GEPOL surface, SMD, ORCA-2-JSON               
  Dimitrios Liakos       : Extrapolation schemes; Compound Job, initial MDCI parallelization 
  Dimitrios Manganas     : Further ROCIS development; embedding schemes. LFT, Crystal Embedding 
  Dimitrios Pantazis     : SARC Basis sets                               
  Anastasios Papadopoulos: AUTO-CI, single reference methods and gradients 
  Taras Petrenko         : pre 6.0 DFT Hessian and TD-DFT gradient, (ASA, deprecated), ECA, 1-Electron XAS/XES, NRVS 
  Peter Pinski           : DLPNO-MP2, DLPNO-MP2 Gradient                 
  Christoph Reimann      : Effective Core Potentials                     
  Marius Retegan         : Local ZFS, SOC                                
  Christoph Riplinger    : Optimizer, TS searches, QM/MM, DLPNO-CCSD(T), (RO)-DLPNO pert. Triples 
  Michael Roemelt        : Original ROCIS implementation                 
  Masaaki Saitow         : Open-shell DLPNO-CCSD energy and density      
  Barbara Sandhoefer     : DKH picture change effects                    
  Kantharuban Sivalingam : CASSCF convergence/infrastructure, NEVPT2 and variants, FIC-MRCI 
  Bernardo de Souza      : ESD, SOC TD-DFT                               
  Georgi L. Stoychev     : AutoAux, RI-MP2 NMR, DLPNO-MP2 response, X2C  
  Van Anh Tran           : RI-MP2 g-tensors                              
  Willem Van den Heuvel  : Paramagnetic NMR                              
  Zikuan Wang            : NOTCH, Electric field optimization            
  Frank Wennmohs         : Technical directorship and infrastructure     
  Hang Xu                : AUTO-CI-Response properties                   
                                                                         
[FACCTs GmbH]                                                            
  Markus Bursch, Miquel Garcia-Rates, Christoph Riplinger, Bernardo de Souza, Georgi L. Stoychev 
                                                                 
  APM, Basis sets (HGBS, AHGBS, def-TZVP (Ac-Lr), def2-XVPD (La-Lu)), CI-OPT, improved COSX, DLPNO-Multilevel,           
  DOCKER, DRACO, updates on ESD, GOAT, IRC, LR-CPCM, MBIS, meta-GGA TD-DFT gradient, ML-optimized integration grids, 
  MM, NACMEs, nearIR, NEB, NEB-TS, NL-DFT gradient (VV10), 2- and 3-layer-ONIOM, interface openCOSMO-RS, QMMM,   
  Crystal-QMMM, SF, symmetry and pop. for TD-DFT, r2SCAN hybrids, SOLVATOR                                   
                                                                         
[Other institutions]                                                     
  V. Asgeirsson          : NEB                                           
  Christoph Bannwarth    : sTDA-DFT, sTD-DFT, PBEh-3c, B97-3c, D3        
  Sebastian Ehlert       : rSCAN, r2SCAN, r2SCAN-3c, D4, dhf basis sets  
  Marvin Friede          : D4 for Fr, Ra, Ac-Lr                          
  Lars Goerigk           : TD-DFT with DH, B97 family of functionals     
  Stefan Grimme          : VdW corrections, initial TS optimization, DFT functionals, gCP, sTDA/sTD-DF 
  Waldemar Hujo          : DFT-NL                                        
  H. Jonsson             : NEB                                           
  Holger Kruse           : gCP                                           
  Marcel Mueller         : wB97X-3c, vDZP basis set                      
  Hagen Neugebauer       : wr2SCAN                                       
  Tobias Risthaus        : range-separated hybrid DFT                    
  Lukas Wittmann         : regularized MP2, r2SCAN double-hybrids, wr2SCAN        
                                                                         
We gratefully acknowledge several colleagues who have allowed us to      
interface, adapt or use parts of their codes:                            
  Ed Valeev, F. Pavosevic, A. Kumar             : LibInt (2-el integral package), F12 methods 
  Garnet Chan, S. Sharma, J. Yang, R. Olivares  : DMRG                   
  Ulf Ekstrom                                   : XCFun DFT Library      
  Mihaly Kallay                                 : mrcc  (arbitrary order and MRCC methods)
  Frank Weinhold                                : gennbo (NPA and NBO analysis)           
  Simon Mueller                                 : openCOSMO-RS                            
  Christopher J. Cramer and Donald G. Truhlar   : smd solvation model                     
  S Lehtola, MJT Oliveira, MAL Marques          : LibXC Library                           
  Liviu Ungur et al                             : ANISO software                          


 Your calculation uses the libint2 library for the computation of 2-el integrals
 For citations please refer to: http://libint.valeyev.net

 Your ORCA version has been built with support for libXC version: 6.2.2
 For citations please refer to: https://libxc.gitlab.io

 This ORCA versions uses:
   CBLAS   interface :  Fast vector & matrix operations
   LAPACKE interface :  Fast linear algebra routines
   SCALAPACK package :  Parallel linear algebra routines
   Shared memory     :  Shared parallel matrices
   BLAS/LAPACK       :  OpenBLAS 0.3.27  USE64BITINT DYNAMIC_ARCH NO_AFFINITY SkylakeX SINGLE_THREADED
        Core in use  :  SkylakeX
   Copyright (c) 2011-2014, The OpenBLAS Project


NOTE: MaxCore=5000 MB was set to SCF,MP2,MDCI,CIPSI,MRCI and CIS
      => If you want to overwrite this, your respective input block should be placed after the MaxCore statement
Your calculation utilizes the atom-pairwise dispersion correction
with the Becke-Johnson damping scheme (D3BJ)


Warning: RI is on but no J-basis has been assigned. Assigning Def2/J (nothing to worry about!)
================================================================================

----- Orbital basis set information -----
Your calculation utilizes the basis: def2-TZVP
   F. Weigend and R. Ahlrichs, Phys. Chem. Chem. Phys. 7, 3297 (2005).

----- AuxJ basis set information -----
Your calculation utilizes the auxiliary basis: def2/J
   F. Weigend, Phys. Chem. Chem. Phys. 8, 1057 (2006).

================================================================================
                                        WARNINGS
                       Please study these warnings very carefully!
================================================================================


WARNING: Geometry Optimization
  ===> : Switching off AutoStart
         For restart on a previous wavefunction, please use MOREAD

================================================================================
                                       INPUT FILE
================================================================================
NAME = honokiol3.inp
|  1> ! Opt B3LYP def2-TZVP TightSCF TightOpt D3BJ RIJCOSX
|  2> 
|  3> %maxcore 5000
|  4> 
|  5> %pal
|  6> nprocs 4
|  7> end
|  8> 
|  9> * xyz 0 1
| 10> O           1.49558779142304      1.27339391926726      2.47644933244666
| 11>   O          -3.60018768470027     -2.41412853862439      2.16492063329164
| 12>   C           1.24765023694115     -0.04666685502922      0.44858839419162
| 13>   C          -0.03192169069994     -0.65192661751622      0.90131104883695
| 14>   C          -2.39477588193204     -1.14398603476141      0.48060472040162
| 15>   C          -1.17975065728897     -0.57468961103786      0.10719028517377
| 16>   C           2.97810901172051      0.18240714858684     -1.26742104842717
| 17>   C           1.78046910415805     -0.35827369514841     -0.80422767660789
| 18>   C           1.94958812930936      0.86767667418238      1.25414139803934
| 19>   C          -0.13331646111852     -1.33657075558741      2.11925983222331
| 20>   C          -2.45594308096110     -1.83283498268472      1.70288891327828
| 21>   C          -3.62352540841454     -0.98470026105547     -0.39291273344597
| 22>   C           3.52064210879465     -0.19504915655643     -2.63299274813499
| 23>   C           3.65421211674002      1.07358635723540     -0.43570773456224
| 24>   C          -1.32796280965389     -1.91988642570701      2.51360387606384
| 25>   C           3.14656878258809      1.41782176554498      0.80902986557778
| 26>   C          -4.22563609710867     -2.28690671529490     -0.85520340130792
| 27>   C           2.66112914094540      0.28845256360382     -3.76898413148891
| 28>   C          -5.49745877586260     -2.64024402022177     -0.69219159217889
| 29>   C           2.12579446620224     -0.48446818352611     -4.70652039490830
| 30>   H          -1.12845144916210     -0.03332990744902     -0.83077875258557
| 31>   H           1.24258575091372     -1.06232043638859     -1.42933414757848
| 32>   H           0.74178633107515     -1.44852707503729      2.74845888382160
| 33>   H          -4.38836678269177     -0.40359220169383      0.13425068596220
| 34>   H          -3.33927021986988     -0.39856040995982     -1.27165133082687
| 35>   H           3.63618469220565     -1.28064162330830     -2.70716635753692
| 36>   H           4.52291268967338      0.23356835282396     -2.73760390189418
| 37>   H           4.59200445672437      1.50834541173532     -0.76269561539355
| 38>   H          -1.40140651783822     -2.46605843844040      3.44520950836186
| 39>   H           3.66244403927807      2.12228555642964      1.44879939011050
| 40>   H          -3.54383542789994     -2.97110682164535     -1.35405521547213
| 41>   H           2.47698593372365      1.35988815909262     -3.79439656279917
| 42>   H           0.62237401725115      0.89062319910831      2.63672050081024
| 43>   H          -4.22314953706850     -2.55221936624591      1.43678641214245
| 44>   H          -5.87322555475106     -3.58884849249724     -1.05423987591753
| 45>   H          -6.21251826730287     -1.98488215596209     -0.20494214218448
| 46>   H           1.51754359422892     -0.07344458560922     -5.50274128247225
| 47>   H           2.28119430492829     -1.55819624882209     -4.71468349001024
| 48> *
| 49> 
| 50>                          ****END OF INPUT****
================================================================================

                       *****************************
                       * Geometry Optimization Run *
                       *****************************

Geometry optimization settings:
Update method            Update   .... BFGS
Choice of coordinates    CoordSys .... (2022) Redundant Internals
Initial Hessian          InHess   .... Almloef's Model
Max. no of cycles        MaxIter  .... 114

Convergence Tolerances:
Energy Change            TolE     ....  1.0000e-06 Eh
Max. Gradient            TolMAXG  ....  1.0000e-04 Eh/bohr
RMS Gradient             TolRMSG  ....  3.0000e-05 Eh/bohr
Max. Displacement        TolMAXD  ....  1.0000e-03 bohr
RMS Displacement         TolRMSD  ....  6.0000e-04 bohr
Strict Convergence                .... False

------------------------------------------------------------------------------
                        ORCA OPTIMIZATION COORDINATE SETUP
------------------------------------------------------------------------------

The optimization will be done in redundant internal coordinates (2022)
Making redundant internal coordinates   ...  (2022 redundants) done
Evaluating the initial hessian          ...  (Almloef) done
Evaluating the coordinates              ...  done
Calculating the B-matrix                .... done
Calculating the G-matrix                .... done
Diagonalizing the G-matrix              .... done
Small eigenvalue found = 2.441e-03
Small eigenvalue found = 8.654e-03
Small eigenvalue found = 1.530e-02
Small eigenvalue found = 1.651e-02
Small eigenvalue found = 2.176e-02
Small eigenvalue found = 2.830e-02
The first mode is                       ....   77
The number of degrees of freedom        ....  108

    -----------------------------------------------------------------
                    Redundant Internal Coordinates


    -----------------------------------------------------------------
         Definition                    Initial Value    Approx d2E/dq
    -----------------------------------------------------------------
      1. B(C   3,C   2)                  1.4861         0.438893   
      2. B(C   5,C   3)                  1.3979         0.606940   
      3. B(C   5,C   4)                  1.3928         0.618459   
      4. B(C   7,C   6)                  1.3933         0.617316   
      5. B(C   7,C   2)                  1.3966         0.609789   
      6. B(C   8,C   2)                  1.4063         0.588499   
      7. B(C   8,O   0)                  1.3656         0.612160   
      8. B(C   9,C   3)                  1.4009         0.600353   
      9. B(C  10,C   4)                  1.4044         0.592686   
     10. B(C  10,O   1)                  1.3641         0.615537   
     11. B(C  11,C   4)                  1.5160         0.393303   
     12. B(C  12,C   6)                  1.5171         0.391700   
     13. B(C  13,C   6)                  1.3939         0.615823   
     14. B(C  14,C  10)                  1.3918         0.620622   
     15. B(C  14,C   9)                  1.3867         0.632411   
     16. B(C  15,C  13)                  1.3876         0.630215   
     17. B(C  15,C   8)                  1.3905         0.623603   
     18. B(C  16,C  11)                  1.5073         0.406044   
     19. B(C  17,C  12)                  1.5043         0.410516   
     20. B(C  18,C  16)                  1.3300         0.778813   
     21. B(C  19,C  17)                  1.3278         0.785286   
     22. B(H  20,C   5)                  1.0842         0.367856   
     23. B(H  21,C   7)                  1.0843         0.367688   
     24. B(H  22,C   9)                  1.0836         0.368641   
     25. B(H  23,C  11)                  1.0957         0.352631   
     26. B(H  24,C  11)                  1.0939         0.355022   
     27. B(H  25,C  12)                  1.0942         0.354533   
     28. B(H  26,C  12)                  1.0951         0.353441   
     29. B(H  27,C  13)                  1.0842         0.367916   
     30. B(H  28,C  14)                  1.0824         0.370297   
     31. B(H  29,C  15)                  1.0825         0.370225   
     32. B(H  30,C  16)                  1.0871         0.363927   
     33. B(H  31,C  17)                  1.0874         0.363501   
     34. B(H  32,O   0)                  0.9668         0.507128   
     35. B(H  33,O   1)                  0.9682         0.504604   
     36. B(H  34,C  18)                  1.0826         0.369956   
     37. B(H  35,C  18)                  1.0855         0.366158   
     38. B(H  36,C  19)                  1.0830         0.369488   
     39. B(H  37,C  19)                  1.0849         0.366848   
     40. A(C   8,O   0,H  32)          109.3317         0.367727   
     41. A(C  10,O   1,H  33)          110.2305         0.367760   
     42. A(C   7,C   2,C   8)          117.9357         0.428738   
     43. A(C   3,C   2,C   7)          120.7222         0.406916   
     44. A(C   3,C   2,C   8)          121.3365         0.404369   
     45. A(C   2,C   3,C   9)          121.7504         0.405795   
     46. A(C   2,C   3,C   5)          120.7588         0.406579   
     47. A(C   5,C   3,C   9)          117.4826         0.429914   
     48. A(C  10,C   4,C  11)          121.1802         0.397130   
     49. A(C   5,C   4,C  11)          120.6406         0.400113   
     50. A(C   5,C   4,C  10)          118.1537         0.430373   
     51. A(C   3,C   5,H  20)          118.6986         0.352910   
     52. A(C   3,C   5,C   4)          122.7809         0.432214   
     53. A(C   4,C   5,H  20)          118.5105         0.354036   
     54. A(C   7,C   6,C  13)          117.8179         0.433200   
     55. A(C   7,C   6,C  12)          120.6698         0.399696   
     56. A(C  12,C   6,C  13)          121.5122         0.399526   
     57. A(C   2,C   7,H  21)          118.2133         0.353163   
     58. A(C   6,C   7,H  21)          119.1248         0.353897   
     59. A(C   2,C   7,C   6)          122.6545         0.432434   
     60. A(O   0,C   8,C   2)          122.6806         0.426239   
     61. A(C   2,C   8,C  15)          120.2347         0.430465   
     62. A(O   0,C   8,C  15)          117.0757         0.430690   
     63. A(C   3,C   9,C  14)          121.0097         0.433100   
     64. A(C  14,C   9,H  22)          119.1531         0.355506   
     65. A(C   3,C   9,H  22)          119.7932         0.352386   
     66. A(O   1,C  10,C   4)          122.7086         0.427201   
     67. A(O   1,C  10,C  14)          117.1216         0.430745   
     68. A(C   4,C  10,C  14)          120.1552         0.430643   
     69. A(C   4,C  11,C  16)          114.1872         0.371851   
     70. A(H  23,C  11,H  24)          106.4816         0.289240   
     71. A(C  16,C  11,H  24)          108.6842         0.328030   
     72. A(C   4,C  11,H  24)          107.9723         0.326312   
     73. A(C  16,C  11,H  23)          109.0810         0.327665   
     74. A(C   4,C  11,H  23)          110.1378         0.325949   
     75. A(C   6,C  12,C  17)          113.2929         0.372292   
     76. A(H  25,C  12,H  26)          106.5703         0.289281   
     77. A(C   6,C  12,H  26)          108.4157         0.325853   
     78. A(C  17,C  12,H  25)          109.1480         0.328549   
     79. A(C   6,C  12,H  25)          110.2190         0.326019   
     80. A(C  17,C  12,H  26)          108.9654         0.328382   
     81. A(C   6,C  13,C  15)          121.0893         0.434815   
     82. A(C  15,C  13,H  27)          119.1769         0.355177   
     83. A(C   6,C  13,H  27)          119.7338         0.353789   
     84. A(C  10,C  14,H  28)          118.5487         0.354643   
     85. A(C   9,C  14,H  28)          121.0289         0.355776   
     86. A(C   9,C  14,C  10)          120.4134         0.435696   
     87. A(C  13,C  15,H  29)          121.1490         0.355555   
     88. A(C   8,C  15,H  29)          118.5899         0.354919   
     89. A(C   8,C  15,C  13)          120.2585         0.435799   
     90. A(C  11,C  16,C  18)          125.0229         0.419152   
     91. A(C  18,C  16,H  30)          119.2591         0.367554   
     92. A(C  11,C  16,H  30)          115.7177         0.329374   
     93. A(C  12,C  17,C  19)          125.2030         0.420592   
     94. A(C  19,C  17,H  31)          119.2603         0.368003   
     95. A(C  12,C  17,H  31)          115.5358         0.329907   
     96. A(H  34,C  18,H  35)          116.7745         0.292845   
     97. A(C  16,C  18,H  35)          121.6384         0.367940   
     98. A(C  16,C  18,H  34)          121.5793         0.368592   
     99. A(H  36,C  19,H  37)          116.7767         0.292873   
    100. A(C  17,C  19,H  37)          121.5785         0.368582   
    101. A(C  17,C  19,H  36)          121.6441         0.369036   
    102. D(C   5,C   3,C   2,C   8)    126.1878         0.013145   
    103. D(C   9,C   3,C   2,C   8)    -54.8833         0.013145   
    104. D(C   9,C   3,C   2,C   7)    125.9971         0.013145   
    105. D(C   5,C   3,C   2,C   7)    -52.9318         0.013145   
    106. D(H  20,C   5,C   4,C  11)     -1.2302         0.026459   
    107. D(H  20,C   5,C   3,C   2)     -2.1674         0.025427   
    108. D(H  20,C   5,C   4,C  10)   -179.4168         0.026459   
    109. D(C   3,C   5,C   4,C  10)     -0.5825         0.026459   
    110. D(C   3,C   5,C   4,C  11)    177.6042         0.026459   
    111. D(C   4,C   5,C   3,C   9)      0.0270         0.025427   
    112. D(C   4,C   5,C   3,C   2)    179.0003         0.025427   
    113. D(H  20,C   5,C   3,C   9)    178.8593         0.025427   
    114. D(C   6,C   7,C   2,C   3)   -179.8163         0.025680   
    115. D(C   6,C   7,C   2,C   8)      1.0348         0.025680   
    116. D(H  21,C   7,C   2,C   3)     -0.8141         0.025680   
    117. D(H  21,C   7,C   6,C  13)   -179.3241         0.026356   
    118. D(H  21,C   7,C   6,C  12)      0.5784         0.026356   
    119. D(C   2,C   7,C   6,C  13)     -0.3305         0.026356   
    120. D(C   2,C   7,C   6,C  12)    179.5720         0.026356   
    121. D(H  21,C   7,C   2,C   8)   -179.9629         0.025680   
    122. D(C  15,C   8,C   2,C   7)     -1.0047         0.023828   
    123. D(C  15,C   8,C   2,C   3)    179.8520         0.023828   
    124. D(O   0,C   8,C   2,C   7)    177.8682         0.023828   
    125. D(C  15,C   8,O   0,H  32)    174.6303         0.027444   
    126. D(O   0,C   8,C   2,C   3)     -1.2751         0.023828   
    127. D(C   2,C   8,O   0,H  32)     -4.2761         0.027444   
    128. D(H  22,C   9,C   3,C   5)    177.9091         0.024848   
    129. D(C  14,C   9,C   3,C   5)      0.3419         0.024848   
    130. D(H  22,C   9,C   3,C   2)     -1.0534         0.024848   
    131. D(C  14,C   9,C   3,C   2)   -178.6206         0.024848   
    132. D(C   4,C  10,O   1,H  33)     19.6715         0.027769   
    133. D(C  14,C  10,C   4,C  11)   -177.3959         0.024185   
    134. D(C  14,C  10,C   4,C   5)      0.7805         0.024185   
    135. D(O   1,C  10,C   4,C  11)      1.1724         0.024185   
    136. D(O   1,C  10,C   4,C   5)    179.3488         0.024185   
    137. D(C  14,C  10,O   1,H  33)   -161.7193         0.027769   
    138. D(H  24,C  11,C   4,C   5)      0.5510         0.011498   
    139. D(H  23,C  11,C   4,C  10)     62.7931         0.011498   
    140. D(H  23,C  11,C   4,C   5)   -115.3382         0.011498   
    141. D(C  16,C  11,C   4,C  10)    -60.3274         0.011498   
    142. D(C  16,C  11,C   4,C   5)    121.5414         0.011498   
    143. D(H  26,C  12,C   6,C   7)   -172.5786         0.011410   
    144. D(H  25,C  12,C   6,C  13)    123.6128         0.011410   
    145. D(H  25,C  12,C   6,C   7)    -56.2861         0.011410   
    146. D(C  17,C  12,C   6,C  13)   -113.7628         0.011410   
    147. D(C  17,C  12,C   6,C   7)     66.3383         0.011410   
    148. D(H  27,C  13,C   6,C  12)     -0.2612         0.026221   
    149. D(H  27,C  13,C   6,C   7)    179.6404         0.026221   
    150. D(C  15,C  13,C   6,C  12)    179.6767         0.026221   
    151. D(C  15,C  13,C   6,C   7)     -0.4217         0.026221   
    152. D(H  28,C  14,C  10,C   4)   -179.3556         0.026656   
    153. D(H  28,C  14,C  10,O   1)      1.9978         0.026656   
    154. D(C   9,C  14,C  10,C   4)     -0.4368         0.026656   
    155. D(C   9,C  14,C  10,O   1)   -179.0833         0.026656   
    156. D(H  28,C  14,C   9,H  22)      1.1694         0.027744   
    157. D(H  28,C  14,C   9,C   3)    178.7520         0.027744   
    158. D(C  10,C  14,C   9,H  22)   -177.7223         0.027744   
    159. D(C  10,C  14,C   9,C   3)     -0.1398         0.027744   
    160. D(C   8,C  15,C  13,C   6)      0.4360         0.027539   
    161. D(H  29,C  15,C   8,C   2)    179.7268         0.026929   
    162. D(H  29,C  15,C   8,O   0)      0.7923         0.026929   
    163. D(C  13,C  15,C   8,C   2)      0.2992         0.026929   
    164. D(C  13,C  15,C   8,O   0)   -178.6353         0.026929   
    165. D(H  29,C  15,C  13,H  27)      0.9615         0.027539   
    166. D(H  29,C  15,C  13,C   6)   -178.9767         0.027539   
    167. D(C   8,C  15,C  13,H  27)   -179.6258         0.027539   
    168. D(H  30,C  16,C  11,H  23)   -177.2787         0.012220   
    169. D(H  30,C  16,C  11,C   4)    -53.5874         0.012220   
    170. D(C  18,C  16,C  11,H  24)   -113.1878         0.012220   
    171. D(C  18,C  16,C  11,H  23)      2.5263         0.012220   
    172. D(C  18,C  16,C  11,C   4)    126.2175         0.012220   
    173. D(H  31,C  17,C  12,H  25)    179.9075         0.012480   
    174. D(H  31,C  17,C  12,C   6)     56.6913         0.012480   
    175. D(C  19,C  17,C  12,H  26)    116.2723         0.012480   
    176. D(C  19,C  17,C  12,H  25)      0.2612         0.012480   
    177. D(C  19,C  17,C  12,C   6)   -122.9550         0.012480   
    178. D(H  35,C  18,C  16,H  30)   -179.6377         0.043583   
    179. D(H  35,C  18,C  16,C  11)      0.5637         0.043583   
    180. D(H  34,C  18,C  16,H  30)     -0.6893         0.043583   
    181. D(H  34,C  18,C  16,C  11)    179.5120         0.043583   
    182. D(H  37,C  19,C  17,H  31)   -179.7163         0.044387   
    183. D(H  37,C  19,C  17,C  12)     -0.0821         0.044387   
    184. D(H  36,C  19,C  17,H  31)      0.6140         0.044387   
    185. D(H  36,C  19,C  17,C  12)   -179.7518         0.044387   
    -----------------------------------------------------------------

Number of atoms                         .... 38
Number of degrees of freedom            .... 185


         *************************************************************
         *                GEOMETRY OPTIMIZATION CYCLE   1            *
         *************************************************************
---------------------------------
CARTESIAN COORDINATES (ANGSTROEM)
---------------------------------
  O      1.495588    1.273394    2.476449
  O     -3.600188   -2.414129    2.164921
  C      1.247650   -0.046667    0.448588
  C     -0.031922   -0.651927    0.901311
  C     -2.394776   -1.143986    0.480605
  C     -1.179751   -0.574690    0.107190
  C      2.978109    0.182407   -1.267421
  C      1.780469   -0.358274   -0.804228
  C      1.949588    0.867677    1.254141
  C     -0.133316   -1.336571    2.119260
  C     -2.455943   -1.832835    1.702889
  C     -3.623525   -0.984700   -0.392913
  C      3.520642   -0.195049   -2.632993
  C      3.654212    1.073586   -0.435708
  C     -1.327963   -1.919886    2.513604
  C      3.146569    1.417822    0.809030
  C     -4.225636   -2.286907   -0.855203
  C      2.661129    0.288453   -3.768984
  C     -5.497459   -2.640244   -0.692192
  C      2.125794   -0.484468   -4.706520
  H     -1.128451   -0.033330   -0.830779
  H      1.242586   -1.062320   -1.429334
  H      0.741786   -1.448527    2.748459
  H     -4.388367   -0.403592    0.134251
  H     -3.339270   -0.398560   -1.271651
  H      3.636185   -1.280642   -2.707166
  H      4.522913    0.233568   -2.737604
  H      4.592004    1.508345   -0.762696
  H     -1.401407   -2.466058    3.445210
  H      3.662444    2.122286    1.448799
  H     -3.543835   -2.971107   -1.354055
  H      2.476986    1.359888   -3.794397
  H      0.622374    0.890623    2.636721
  H     -4.223150   -2.552219    1.436786
  H     -5.873226   -3.588848   -1.054240
  H     -6.212518   -1.984882   -0.204942
  H      1.517544   -0.073445   -5.502741
  H      2.281194   -1.558196   -4.714683

----------------------------
CARTESIAN COORDINATES (A.U.)
----------------------------
  NO LB      ZA    FRAG     MASS         X           Y           Z
   0 O     8.0000    0    15.999    2.826251    2.406366    4.679811
   1 O     8.0000    0    15.999   -6.803369   -4.562042    4.091107
   2 C     6.0000    0    12.011    2.357717   -0.088188    0.847709
   3 C     6.0000    0    12.011   -0.060323   -1.231963    1.703231
   4 C     6.0000    0    12.011   -4.525471   -2.161820    0.908211
   5 C     6.0000    0    12.011   -2.229406   -1.086006    0.202560
   6 C     6.0000    0    12.011    5.627810    0.344700   -2.395079
   7 C     6.0000    0    12.011    3.364599   -0.677039   -1.519770
   8 C     6.0000    0    12.011    3.684188    1.639671    2.369984
   9 C     6.0000    0    12.011   -0.251932   -2.525753    4.004821
  10 C     6.0000    0    12.011   -4.641060   -3.463556    3.217994
  11 C     6.0000    0    12.011   -6.847471   -1.860814   -0.742497
  12 C     6.0000    0    12.011    6.653049   -0.368589   -4.975635
  13 C     6.0000    0    12.011    6.905460    2.028784   -0.823368
  14 C     6.0000    0    12.011   -2.509486   -3.628060    4.750023
  15 C     6.0000    0    12.011    5.946153    2.679295    1.528845
  16 C     6.0000    0    12.011   -7.985295   -4.321627   -1.616100
  17 C     6.0000    0    12.011    5.028805    0.545096   -7.122348
  18 C     6.0000    0    12.011  -10.388692   -4.989338   -1.308053
  19 C     6.0000    0    12.011    4.017169   -0.915512   -8.894035
  20 H     1.0000    0     1.008   -2.132464   -0.062984   -1.569944
  21 H     1.0000    0     1.008    2.348147   -2.007495   -2.701050
  22 H     1.0000    0     1.008    1.401773   -2.737319    5.193835
  23 H     1.0000    0     1.008   -8.292811   -0.762679    0.253697
  24 H     1.0000    0     1.008   -6.310306   -0.753170   -2.403073
  25 H     1.0000    0     1.008    6.871393   -2.420062   -5.115803
  26 H     1.0000    0     1.008    8.547066    0.441380   -5.173322
  27 H     1.0000    0     1.008    8.677631    2.850360   -1.441286
  28 H     1.0000    0     1.008   -2.648275   -4.660175    6.510502
  29 H     1.0000    0     1.008    6.921016    4.010538    2.737834
  30 H     1.0000    0     1.008   -6.696878   -5.614578   -2.558794
  31 H     1.0000    0     1.008    4.680825    2.569816   -7.170370
  32 H     1.0000    0     1.008    1.176116    1.683034    4.982680
  33 H     1.0000    0     1.008   -7.980596   -4.822996    2.715133
  34 H     1.0000    0     1.008  -11.098788   -6.781941   -1.992225
  35 H     1.0000    0     1.008  -11.739958   -3.750884   -0.387285
  36 H     1.0000    0     1.008    2.867742   -0.138790  -10.398674
  37 H     1.0000    0     1.008    4.310832   -2.944564   -8.909461

--------------------------------
INTERNAL COORDINATES (ANGSTROEM)
--------------------------------
 O      0   0   0     0.000000000000     0.00000000     0.00000000
 O      1   0   0     6.297761484124     0.00000000     0.00000000
 C      1   2   0     2.432334981794    63.80074686     0.00000000
 C      3   1   2     1.486136433886    93.14273141     0.57030087
 C      2   1   3     2.429650116537    47.68243279   324.61458304
 C      5   2   1     1.392775306724   146.34105050    24.95061481
 C      3   1   2     2.447784891999   117.49150701   179.81701437
 C      7   3   1     1.393278587600    28.71025756   181.78562504
 C      1   2   3     1.365561963543    92.91007225   359.19072593
 C      4   3   1     1.400863210387   121.75037046   304.51327853
 C      2   1   3     1.364064229302    24.28453321   355.82322992
 C      5   2   1     1.515991457335    92.99494163   206.99094297
 C      7   3   1     1.517102992798   149.37873471   181.06285377
 C      7   3   1     1.393937884916    89.10807717     1.49327153
 C     10   4   3     1.386702669641   121.00971577   181.37940512
 C     14   7   3     1.387649618688   121.08934510   359.41949233
 C     12   5   2     1.507312705610   114.18722054   300.22721683
 C     13   7   3     1.504331372522   113.29285486    66.74196463
 C     17  12   5     1.330019934874   125.02290960   126.21754843
 C     18  13   7     1.327766523359   125.20299481   237.04497554
 H      6   5   2     1.084199175991   118.51051595   181.13817418
 H      8   7   3     1.084323944030   119.12480166   181.00645025
 H     10   4   3     1.083619195521   119.79321540   358.94661629
 H     12   5   2     1.095705332297   110.13776524    63.34763853
 H     12   5   2     1.093865832625   107.97234235   179.23682950
 H     13   7   3     1.094240749004   110.21903474   304.11756811
 H     13   7   3     1.095081175134   108.41565808   187.82506753
 H     14   7   3     1.084154501265   119.73376269   179.48161369
 H     15  10   4     1.082398678812   121.02890164   178.75195977
 H     16  14   7     1.082451642178   121.14901564   181.02327341
 H     17  12   5     1.087122380672   115.71771979   306.41256069
 H     18  13   7     1.087441376678   115.53576799    56.69132551
 H      1   2   3     0.966800169127    17.36261234   160.66027583
 H      2   1   3     0.968158039882   129.89334353   315.00883046
 H     19  17  12     1.082649563199   121.57929564   179.51204714
 H     19  17  12     1.085459016244   121.63837563     0.56370996
 H     20  18  13     1.082994562818   121.64408994   180.24821642
 H     20  18  13     1.084945945290   121.57845196   359.91794463

---------------------------
INTERNAL COORDINATES (A.U.)
---------------------------
 O      0   0   0     0.000000000000     0.00000000     0.00000000
 O      1   0   0    11.901044461751     0.00000000     0.00000000
 C      1   2   0     4.596446981547    63.80074686     0.00000000
 C      3   1   2     2.808390857686    93.14273141     0.57030087
 C      2   1   3     4.591373321504    47.68243279   324.61458304
 C      5   2   1     2.631963895796   146.34105050    24.95061481
 C      3   1   2     4.625643080629   117.49150701   179.81701437
 C      7   3   1     2.632914958821    28.71025756   181.78562504
 C      1   2   3     2.580538129996    92.91007225   359.19072593
 C      4   3   1     2.647247818717   121.75037046   304.51327853
 C      2   1   3     2.577707822459    24.28453321   355.82322992
 C      5   2   1     2.864808675727    92.99494163   206.99094297
 C      7   3   1     2.866909173340   149.37873471   181.06285377
 C      7   3   1     2.634160850189    89.10807717     1.49327153
 C     10   4   3     2.620488274798   121.00971577   181.37940512
 C     14   7   3     2.622277749161   121.08934510   359.41949233
 C     12   5   2     2.848408211784   114.18722054   300.22721683
 C     13   7   3     2.842774308732   113.29285486    66.74196463
 C     17  12   5     2.513373429567   125.02290960   126.21754843
 C     18  13   7     2.509115098937   125.20299481   237.04497554
 H      6   5   2     2.048839517246   118.51051595   181.13817418
 H      8   7   3     2.049075294671   119.12480166   181.00645025
 H     10   4   3     2.047743512995   119.79321540   358.94661629
 H     12   5   2     2.070583001518   110.13776524    63.34763853
 H     12   5   2     2.067106850915   107.97234235   179.23682950
 H     13   7   3     2.067815340195   110.21903474   304.11756811
 H     13   7   3     2.069403515416   108.41565808   187.82506753
 H     14   7   3     2.048755094249   119.73376269   179.48161369
 H     15  10   4     2.045437070673   121.02890164   178.75195977
 H     16  14   7     2.045537156929   121.14901564   181.02327341
 H     17  12   5     2.054363573527   115.71771979   306.41256069
 H     18  13   7     2.054966388616   115.53576799    56.69132551
 H      1   2   3     1.826987545878    17.36261234   160.66027583
 H      2   1   3     1.829553549731   129.89334353   315.00883046
 H     19  17  12     2.045911173456   121.57929564   179.51204714
 H     19  17  12     2.051220270296   121.63837563     0.56370996
 H     20  18  13     2.046563128252   121.64408994   180.24821642
 H     20  18  13     2.050250706707   121.57845196   359.91794463

---------------------
BASIS SET INFORMATION
---------------------
There are 3 groups of distinct atoms

 Group   1 Type O   : 11s6p2d1f contracted to 5s3p2d1f pattern {62111/411/11/1}
 Group   2 Type C   : 11s6p2d1f contracted to 5s3p2d1f pattern {62111/411/11/1}
 Group   3 Type H   : 5s1p contracted to 3s1p pattern {311/1}

Atom   0O    basis set group =>   1
Atom   1O    basis set group =>   1
Atom   2C    basis set group =>   2
Atom   3C    basis set group =>   2
Atom   4C    basis set group =>   2
Atom   5C    basis set group =>   2
Atom   6C    basis set group =>   2
Atom   7C    basis set group =>   2
Atom   8C    basis set group =>   2
Atom   9C    basis set group =>   2
Atom  10C    basis set group =>   2
Atom  11C    basis set group =>   2
Atom  12C    basis set group =>   2
Atom  13C    basis set group =>   2
Atom  14C    basis set group =>   2
Atom  15C    basis set group =>   2
Atom  16C    basis set group =>   2
Atom  17C    basis set group =>   2
Atom  18C    basis set group =>   2
Atom  19C    basis set group =>   2
Atom  20H    basis set group =>   3
Atom  21H    basis set group =>   3
Atom  22H    basis set group =>   3
Atom  23H    basis set group =>   3
Atom  24H    basis set group =>   3
Atom  25H    basis set group =>   3
Atom  26H    basis set group =>   3
Atom  27H    basis set group =>   3
Atom  28H    basis set group =>   3
Atom  29H    basis set group =>   3
Atom  30H    basis set group =>   3
Atom  31H    basis set group =>   3
Atom  32H    basis set group =>   3
Atom  33H    basis set group =>   3
Atom  34H    basis set group =>   3
Atom  35H    basis set group =>   3
Atom  36H    basis set group =>   3
Atom  37H    basis set group =>   3
---------------------------------
AUXILIARY/J BASIS SET INFORMATION
---------------------------------
There are 3 groups of distinct atoms

 Group   1 Type O   : 12s5p4d2f1g contracted to 6s4p3d1f1g pattern {711111/2111/211/2/1}
 Group   2 Type C   : 12s5p4d2f1g contracted to 6s4p3d1f1g pattern {711111/2111/211/2/1}
 Group   3 Type H   : 5s2p1d contracted to 3s1p1d pattern {311/2/1}

Atom   0O    basis set group =>   1
Atom   1O    basis set group =>   1
Atom   2C    basis set group =>   2
Atom   3C    basis set group =>   2
Atom   4C    basis set group =>   2
Atom   5C    basis set group =>   2
Atom   6C    basis set group =>   2
Atom   7C    basis set group =>   2
Atom   8C    basis set group =>   2
Atom   9C    basis set group =>   2
Atom  10C    basis set group =>   2
Atom  11C    basis set group =>   2
Atom  12C    basis set group =>   2
Atom  13C    basis set group =>   2
Atom  14C    basis set group =>   2
Atom  15C    basis set group =>   2
Atom  16C    basis set group =>   2
Atom  17C    basis set group =>   2
Atom  18C    basis set group =>   2
Atom  19C    basis set group =>   2
Atom  20H    basis set group =>   3
Atom  21H    basis set group =>   3
Atom  22H    basis set group =>   3
Atom  23H    basis set group =>   3
Atom  24H    basis set group =>   3
Atom  25H    basis set group =>   3
Atom  26H    basis set group =>   3
Atom  27H    basis set group =>   3
Atom  28H    basis set group =>   3
Atom  29H    basis set group =>   3
Atom  30H    basis set group =>   3
Atom  31H    basis set group =>   3
Atom  32H    basis set group =>   3
Atom  33H    basis set group =>   3
Atom  34H    basis set group =>   3
Atom  35H    basis set group =>   3
Atom  36H    basis set group =>   3
Atom  37H    basis set group =>   3
--------------------------------------------------------------------------
WARNING: There was an error initializing an OpenFabrics device.

  Local host:   ga01
  Local device: mlx5_0
--------------------------------------------------------------------------


           ************************************************************
           *        Program running with 4 parallel MPI-processes     *
           *              working on a common directory               *
           ************************************************************
------------------------------------------------------------------------------
                             ORCA STARTUP CALCULATIONS
                           -- RI-GTO INTEGRALS CHOSEN --
------------------------------------------------------------------------------
------------------------------------------------------------------------------
                   ___                                                        
                  /   \      - P O W E R E D   B Y -                         
                 /     \                                                     
                 |  |  |   _    _      __       _____    __    __             
                 |  |  |  | |  | |    /  \     |  _  \  |  |  /  |          
                  \  \/   | |  | |   /    \    | | | |  |  | /  /          
                 / \  \   | |__| |  /  /\  \   | |_| |  |  |/  /          
                |  |  |   |  __  | /  /__\  \  |    /   |      \           
                |  |  |   | |  | | |   __   |  |    \   |  |\   \          
                \     /   | |  | | |  |  |  |  | |\  \  |  | \   \       
                 \___/    |_|  |_| |__|  |__|  |_| \__\ |__|  \__/        
                                                                              
                      - O R C A' S   B I G   F R I E N D -                    
                                      &                                       
                       - I N T E G R A L  F E E D E R -                       
                                                                              
 v1 FN, 2020, v2 2021, v3 2022-2024                                           
------------------------------------------------------------------------------


----------------------
SHARK INTEGRAL PACKAGE
----------------------

Number of atoms                             ...     38
Number of basis functions                   ...    728
Number of shells                            ...    292
Maximum angular momentum                    ...      3
Integral batch strategy                     ... SHARK/LIBINT Hybrid
RI-J (if used) integral strategy            ... SPLIT-RIJ (Revised 2003 algorithm where possible)
Printlevel                                  ...      1
Contraction scheme used                     ... SEGMENTED contraction
Prescreening option                         ... SCHWARTZ
   Thresh                                   ... 2.500e-11
   Tcut                                     ... 2.500e-12
   Tpresel                                  ... 2.500e-12 
Coulomb Range Separation                    ... NOT USED
Exchange Range Separation                   ... NOT USED
Multipole approximations                    ... NOT USED
Finite Nucleus Model                        ... NOT USED
CABS basis                                  ... NOT available
Auxiliary Coulomb fitting basis             ... AVAILABLE
   # of basis functions in Aux-J            ...   1178
   # of shells in Aux-J                     ...    390
   Maximum angular momentum in Aux-J        ...      4
Auxiliary J/K fitting basis                 ... NOT available
Auxiliary Correlation fitting basis         ... NOT available
Auxiliary 'external' fitting basis          ... NOT available

Checking pre-screening integrals            ... done (  0.0 sec) Dimension = 292
Check shell pair data                       ... done (  0.0 sec)
Shell pair information
Shell pair cut-off parameter TPreSel        ...   2.5e-12
Total number of shell pairs                 ...     42778
Shell pairs after pre-screening             ...     29551
Total number of primitive shell pairs       ...    129780
Primitive shell pairs kept                  ...     60521
          la=0 lb=0:   7965 shell pairs
          la=1 lb=0:   8630 shell pairs
          la=1 lb=1:   2352 shell pairs
          la=2 lb=0:   4129 shell pairs
          la=2 lb=1:   2266 shell pairs
          la=2 lb=2:    560 shell pairs
          la=3 lb=0:   1938 shell pairs
          la=3 lb=1:   1079 shell pairs
          la=3 lb=2:    503 shell pairs
          la=3 lb=3:    129 shell pairs

Calculating one electron integrals          ... done (  0.1 sec)
Calculating RI/J V-Matrix + Cholesky decomp.... done (  0.1 sec)
Calculating Nuclear repulsion               ... done (  0.0 sec) ENN=   1413.960862068146 Eh

Diagonalization of the overlap matrix:
Smallest eigenvalue                        ... 6.579e-06
Time for diagonalization                   ...    0.067 sec
Threshold for overlap eigenvalues          ... 1.000e-07
Number of eigenvalues below threshold      ... 0
Time for construction of square roots      ...    0.035 sec
Total time needed                          ...    0.106 sec

-------------------
DFT GRID GENERATION
-------------------

General Integration Accuracy     IntAcc      ... 4.388
Radial Grid Type                 RadialGrid  ... OptM3 with GC (2021)
Angular Grid (max. ang.)         AngularGrid ... 4 (Lebedev-302)
Angular grid pruning method      GridPruning ... 4 (adaptive)
Weight generation scheme         WeightScheme... mBecke (2022)
Basis function cutoff            BFCut       ... 1.0000e-11
Integration weight cutoff        WCut        ... 1.0000e-14
Partially contracted basis set               ... off
Rotationally invariant grid construction     ... off
Angular grids for H and He will be reduced by one unit

Total number of grid points                  ...   177228
Total number of batches                      ...     2787
Average number of points per batch           ...       63
Average number of grid points per atom       ...     4664

--------------------
COSX GRID GENERATION
--------------------

GRIDX 1
-------
General Integration Accuracy     IntAcc      ... 3.816
Radial Grid Type                 RadialGrid  ... OptM3 with GC (2021)
Angular Grid (max. ang.)         AngularGrid ... 1 (Lebedev-50)
Angular grid pruning method      GridPruning ... 4 (adaptive)
Weight generation scheme         WeightScheme... mBecke (2022)
Basis function cutoff            BFCut       ... 1.0000e-11
Integration weight cutoff        WCut        ... 1.0000e-14
Partially contracted basis set               ... on
Rotationally invariant grid construction     ... off
Angular grids for H and He will be reduced by one unit

Total number of grid points                  ...    22519
Total number of batches                      ...      198
Average number of points per batch           ...      113
Average number of grid points per atom       ...      593
UseSFitting                                  ... on

GRIDX 2
-------
General Integration Accuracy     IntAcc      ... 4.020
Radial Grid Type                 RadialGrid  ... OptM3 with GC (2021)
Angular Grid (max. ang.)         AngularGrid ... 2 (Lebedev-110)
Angular grid pruning method      GridPruning ... 4 (adaptive)
Weight generation scheme         WeightScheme... mBecke (2022)
Basis function cutoff            BFCut       ... 1.0000e-11
Integration weight cutoff        WCut        ... 1.0000e-14
Partially contracted basis set               ... on
Rotationally invariant grid construction     ... off
Angular grids for H and He will be reduced by one unit

Total number of grid points                  ...    48584
Total number of batches                      ...      402
Average number of points per batch           ...      120
Average number of grid points per atom       ...     1279
UseSFitting                                  ... on

GRIDX 3
-------
General Integration Accuracy     IntAcc      ... 4.338
Radial Grid Type                 RadialGrid  ... OptM3 with GC (2021)
Angular Grid (max. ang.)         AngularGrid ... 3 (Lebedev-194)
Angular grid pruning method      GridPruning ... 4 (adaptive)
Weight generation scheme         WeightScheme... mBecke (2022)
Basis function cutoff            BFCut       ... 1.0000e-11
Integration weight cutoff        WCut        ... 1.0000e-14
Partially contracted basis set               ... on
Rotationally invariant grid construction     ... off
Angular grids for H and He will be reduced by one unit

Total number of grid points                  ...   106259
Total number of batches                      ...      849
Average number of points per batch           ...      125
Average number of grid points per atom       ...     2796
UseSFitting                                  ... on
Initializing property integral containers    ... done (  0.0 sec)

SHARK setup successfully completed in   3.7 seconds

Maximum memory used throughout the entire STARTUP-calculation: 83.4 MB
[ga01:1031837] 3 more processes have sent help message help-mpi-btl-openib.txt / error in device init
[ga01:1031837] Set MCA parameter "orte_base_help_aggregate" to 0 to see all help / error messages
--------------------------------------------------------------------------
WARNING: There was an error initializing an OpenFabrics device.

  Local host:   ga01
  Local device: mlx5_0
--------------------------------------------------------------------------


           ************************************************************
           *        Program running with 4 parallel MPI-processes     *
           *              working on a common directory               *
           ************************************************************
-------------------------------------------------------------------------------
                                 ORCA GUESS
                   Start orbitals & Density for SCF / CASSCF
-------------------------------------------------------------------------------

------------
SCF SETTINGS
------------
Hamiltonian:
 Density Functional     Method          .... DFT(GTOs)
 Exchange Functional    Exchange        .... B88
   X-Alpha parameter    XAlpha          ....  0.666667
   Becke's b parameter  XBeta           ....  0.004200
 Correlation Functional Correlation     .... LYP
 LDA part of GGA corr.  LDAOpt          .... VWN-5
 Gradients option       PostSCFGGA      .... off
 Hybrid DFT is turned on
   Fraction HF Exchange ScalHFX         ....  0.200000
   Scaling of DF-GGA-X  ScalDFX         ....  0.720000
   Scaling of DF-GGA-C  ScalDFC         ....  0.810000
   Scaling of DF-LDA-C  ScalLDAC        ....  1.000000
   Perturbative correction              ....  0.000000
   NL short-range parameter             ....  4.800000
 RI-approximation to the Coulomb term is turned on
   Number of AuxJ basis functions       .... 1178
   RIJ-COSX (HFX calculated with COS-X)).... on


General Settings:
 Integral files         IntName         .... honokiol3
 Hartree-Fock type      HFTyp           .... RHF
 Total Charge           Charge          ....    0
 Multiplicity           Mult            ....    1
 Number of Electrons    NEL             ....  142
 Basis Dimension        Dim             ....  728
 Nuclear Repulsion      ENuc            ....   1413.9608620681 Eh

Convergence Acceleration:
 AO-DIIS                CNVDIIS         .... on
   Start iteration      DIISMaxIt       ....    12
   Startup error        DIISStart       ....  0.200000
   # of expansion vecs  DIISMaxEq       ....     5
   Bias factor          DIISBfac        ....   1.050
   Max. coefficient     DIISMaxC        ....  10.000
 MO-DIIS                CNVKDIIS        .... off
 Trust-Rad. Augm. Hess. CNVTRAH         .... auto
   Auto Start mean grad. ratio tolernc. ....  1.125000
   Auto Start start iteration           ....    50
   Auto Start num. interpolation iter.  ....    10
   Max. Number of Micro iterations      ....    24
   Max. Number of Macro iterations      .... Maxiter - #DIIS iter
   Number of Davidson start vectors     ....     2
   Converg. threshold    (grad. norm)   ....   1.000e-05
   Grad. Scal. Fac. for Micro threshold ....   0.100
   Minimum threshold for Micro iter.    ....   1.000e-02
   NR start threshold (gradient norm)   ....   1.000e-04
   Initial trust radius                 ....   0.400
   Minimum AH scaling param. (alpha)    ....   1.000
   Maximum AH scaling param. (alpha)    .... 1000.000
   Quad. conv. algorithm                .... NR
   White noise on init. David. guess    .... on
   Maximum white noise                  ....   0.010
   Pseudo random numbers                .... off
   Inactive MOs                         .... canonical
   Orbital update algorithm             .... Taylor
   Preconditioner                       .... Diag
   Full preconditioner red. dimension   ....   250
 SOSCF                  CNVSOSCF        .... on
   Start iteration      SOSCFMaxIt      ....   150
   Startup grad/error   SOSCFStart      ....  0.003300
   Hessian update       SOSCFHessUp     .... L-BFGS
 Level Shifting         CNVShift        .... on
   Level shift para.    LevelShift      ....    0.2500
   Turn off err/grad.   ShiftErr        ....    0.0010
 Zerner damping         CNVZerner       .... off
 Static damping         CNVDamp         .... on
   Fraction old density DampFac         ....    0.7000
   Max. Damping (<1)    DampMax         ....    0.9800
   Min. Damping (>=0)   DampMin         ....    0.0000
   Turn off err/grad.   DampErr         ....    0.1000

SCF Procedure:
 Maximum # iterations   MaxIter         ....   125
 SCF integral mode      SCFMode         .... Direct
   Integral package                     .... SHARK and LIBINT hybrid scheme
 Reset frequency        DirectResetFreq ....    20
 Integral Threshold     Thresh          ....  2.500e-11 Eh
 Primitive CutOff       TCut            ....  2.500e-12 Eh

Convergence Tolerance:
 Convergence Check Mode ConvCheckMode   .... Total+1el-Energy
 Convergence forced     ConvForced      .... 0
 Energy Change          TolE            ....  1.000e-08 Eh
 1-El. energy change                    ....  1.000e-05 Eh
 Orbital Gradient       TolG            ....  1.000e-05
 Orbital Rotation angle TolX            ....  1.000e-05
 DIIS Error             TolErr          ....  5.000e-07

------------------------------
INITIAL GUESS: MODEL POTENTIAL
------------------------------
Loading Hartree-Fock densities                     ... done
Calculating cut-offs                               ... done
Initializing the effective Hamiltonian             ... done
Setting up the integral package (SHARK)            ... done
Starting the Coulomb interaction                   ... done (   0.5 sec)
Making the grid                                    ... done (   0.4 sec)
Mapping shells                                     ... done
Starting the XC term evaluation                    ... done (   0.4 sec)
  promolecular density results
     # of electrons  =    141.999236627
     EX              =   -114.323392154
     EC              =     -4.775486374
     EX+EC           =   -119.098878528
Transforming the Hamiltonian                       ... done (   0.0 sec)
Diagonalizing the Hamiltonian                      ... done (   0.1 sec)
Back transforming the eigenvectors                 ... done (   0.0 sec)
Now organizing SCF variables                       ... done
                      ------------------
                      INITIAL GUESS DONE (   1.5 sec)
                      ------------------
             **** ENERGY FILE WAS UPDATED (honokiol3.en.tmp) ****
Finished Guess after   2.0 sec
Maximum memory used throughout the entire GUESS-calculation: 63.2 MB
[ga01:1031974] 3 more processes have sent help message help-mpi-btl-openib.txt / error in device init
[ga01:1031974] Set MCA parameter "orte_base_help_aggregate" to 0 to see all help / error messages
--------------------------------------------------------------------------
WARNING: There was an error initializing an OpenFabrics device.

  Local host:   ga01
  Local device: mlx5_0
--------------------------------------------------------------------------


           ************************************************************
           *        Program running with 4 parallel MPI-processes     *
           *              working on a common directory               *
           ************************************************************

-------------------------------------------------------------------------------------------
                                      ORCA LEAN-SCF
                              memory conserving SCF solver
-------------------------------------------------------------------------------------------

----------------------------------------D-I-I-S--------------------------------------------
Iteration    Energy (Eh)           Delta-E    RMSDP     MaxDP     DIISErr   Damp  Time(sec)
-------------------------------------------------------------------------------------------
               ***  Starting incremental Fock matrix formation  ***
[ga01:1031995] 3 more processes have sent help message help-mpi-btl-openib.txt / error in device init
[ga01:1031995] Set MCA parameter "orte_base_help_aggregate" to 0 to see all help / error messages
    1    -846.4261160584367190     0.00e+00  1.47e-03  1.23e-01  2.30e-01  0.700  15.5
    2    -846.6699236524762000    -2.44e-01  1.37e-03  1.40e-01  1.03e-01  0.700   7.7
                               ***Turning on AO-DIIS***
    3    -846.7758082848260983    -1.06e-01  5.11e-04  4.21e-02  3.79e-02  0.700   7.5
    4    -846.8368916229635488    -6.11e-02  7.36e-04  4.19e-02  2.14e-02  0.000   7.1
    5    -846.9677953120806251    -1.31e-01  3.23e-04  3.58e-02  4.48e-03  0.000   7.4
                              *** Initializing SOSCF ***
---------------------------------------S-O-S-C-F--------------------------------------
Iteration    Energy (Eh)           Delta-E    RMSDP     MaxDP     MaxGrad    Time(sec)
--------------------------------------------------------------------------------------
    6    -846.9684010791181663    -6.06e-04  1.14e-04  1.11e-02  1.23e-03     6.8
               *** Restarting incremental Fock matrix formation ***
    7    -846.9684374317027959    -3.64e-05  8.39e-05  8.57e-03  2.73e-04    15.3
    8    -846.9684314485591585     5.98e-06  1.63e-05  1.27e-03  6.15e-04    10.9
    9    -846.9684427799222703    -1.13e-05  1.20e-05  9.26e-04  4.10e-05     9.5
   10    -846.9684426531814552     1.27e-07  4.71e-06  5.40e-04  4.75e-05     9.1
   11    -846.9684429791834646    -3.26e-07  3.07e-06  2.10e-04  1.51e-05     7.6
   12    -846.9684429750625441     4.12e-09  1.50e-06  9.65e-05  1.88e-05     7.4
                 **** Energy Check signals convergence ****

               *****************************************************
               *                     SUCCESS                       *
               *           SCF CONVERGED AFTER  12 CYCLES          *
               *****************************************************

Recomputing exchange energy using gridx3       ... done (   25.866 sec)
Old exchange energy                            :    -23.254173767 Eh
New exchange energy                            :    -23.254170076 Eh
Exchange energy change after final integration :      0.000003691 Eh
Total energy after final integration           :   -846.968439284 Eh
             **** ENERGY FILE WAS UPDATED (honokiol3.en.tmp) ****

----------------
TOTAL SCF ENERGY
----------------

Total Energy       :       -846.96843928363205 Eh          -23047.18293 eV

Components:
Nuclear Repulsion  :       1413.96086206814584 Eh           38475.83113 eV
Electronic Energy  :      -2260.92930504320839 Eh          -61523.01416 eV
One Electron Energy:      -3955.75544432412062 Eh         -107641.57803 eV
Two Electron Energy:       1694.82613928091223 Eh           46118.56387 eV

Virial components:
Potential Energy   :      -1690.11035683859791 Eh          -45990.24091 eV
Kinetic Energy     :        843.14191755496574 Eh           22943.05798 eV
Virial Ratio       :          2.00453840765000

DFT components:
N(Alpha)           :       71.000113084544 electrons
N(Beta)            :       71.000113084544 electrons
N(Total)           :      142.000226169087 electrons
E(X)               :      -92.379924962204 Eh       
E(C)               :       -5.639823906494 Eh       
E(XC)              :      -98.019748868698 Eh       

---------------
SCF CONVERGENCE
---------------

  Last Energy change         ...   -4.1209e-09  Tolerance :   1.0000e-08
  Last MAX-Density change    ...    9.6490e-05  Tolerance :   1.0000e-07
  Last RMS-Density change    ...    1.5006e-06  Tolerance :   5.0000e-09
  Last DIIS Error            ...    1.2252e-03  Tolerance :   5.0000e-07
  Last Orbital Gradient      ...    1.8838e-05  Tolerance :   1.0000e-05
  Last Orbital Rotation      ...    3.2991e-05  Tolerance :   1.0000e-05


----------------
ORBITAL ENERGIES
----------------

  NO   OCC          E(Eh)            E(eV) 
   0   2.0000     -19.154907      -521.2315 
   1   2.0000     -19.148243      -521.0502 
   2   2.0000     -10.238839      -278.6130 
   3   2.0000     -10.229149      -278.3493 
   4   2.0000     -10.198197      -277.5070 
   5   2.0000     -10.195303      -277.4283 
   6   2.0000     -10.190378      -277.2943 
   7   2.0000     -10.185807      -277.1699 
   8   2.0000     -10.184835      -277.1435 
   9   2.0000     -10.181180      -277.0440 
  10   2.0000     -10.180577      -277.0276 
  11   2.0000     -10.179984      -277.0115 
  12   2.0000     -10.174854      -276.8719 
  13   2.0000     -10.174192      -276.8538 
  14   2.0000     -10.173643      -276.8389 
  15   2.0000     -10.172204      -276.7997 
  16   2.0000     -10.168817      -276.7076 
  17   2.0000     -10.168729      -276.7052 
  18   2.0000     -10.163789      -276.5707 
  19   2.0000     -10.160358      -276.4774 
  20   2.0000      -1.063005       -28.9258 
  21   2.0000      -1.055853       -28.7312 
  22   2.0000      -0.872309       -23.7367 
  23   2.0000      -0.853272       -23.2187 
  24   2.0000      -0.822327       -22.3767 
  25   2.0000      -0.798881       -21.7387 
  26   2.0000      -0.775937       -21.1143 
  27   2.0000      -0.764990       -20.8164 
  28   2.0000      -0.743116       -20.2212 
  29   2.0000      -0.723509       -19.6877 
  30   2.0000      -0.697192       -18.9716 
  31   2.0000      -0.676284       -18.4026 
  32   2.0000      -0.635709       -17.2985 
  33   2.0000      -0.621155       -16.9025 
  34   2.0000      -0.596777       -16.2391 
  35   2.0000      -0.589092       -16.0300 
  36   2.0000      -0.578129       -15.7317 
  37   2.0000      -0.554914       -15.1000 
  38   2.0000      -0.551423       -15.0050 
  39   2.0000      -0.539127       -14.6704 
  40   2.0000      -0.499367       -13.5885 
  41   2.0000      -0.493430       -13.4269 
  42   2.0000      -0.485224       -13.2036 
  43   2.0000      -0.474859       -12.9216 
  44   2.0000      -0.461891       -12.5687 
  45   2.0000      -0.456010       -12.4087 
  46   2.0000      -0.445378       -12.1193 
  47   2.0000      -0.434363       -11.8196 
  48   2.0000      -0.430998       -11.7281 
  49   2.0000      -0.428057       -11.6480 
  50   2.0000      -0.421307       -11.4643 
  51   2.0000      -0.418017       -11.3748 
  52   2.0000      -0.409223       -11.1355 
  53   2.0000      -0.405510       -11.0345 
  54   2.0000      -0.399596       -10.8736 
  55   2.0000      -0.394255       -10.7282 
  56   2.0000      -0.376765       -10.2523 
  57   2.0000      -0.369490       -10.0543 
  58   2.0000      -0.367242        -9.9932 
  59   2.0000      -0.358686        -9.7603 
  60   2.0000      -0.354311        -9.6413 
  61   2.0000      -0.350027        -9.5247 
  62   2.0000      -0.339487        -9.2379 
  63   2.0000      -0.332475        -9.0471 
  64   2.0000      -0.323761        -8.8100 
  65   2.0000      -0.287560        -7.8249 
  66   2.0000      -0.265075        -7.2130 
  67   2.0000      -0.261291        -7.1101 
  68   2.0000      -0.259245        -7.0544 
  69   2.0000      -0.230289        -6.2665 
  70   2.0000      -0.212592        -5.7849 
  71   0.0000      -0.031051        -0.8449 
  72   0.0000      -0.026775        -0.7286 
  73   0.0000      -0.009042        -0.2460 
  74   0.0000      -0.002043        -0.0556 
  75   0.0000       0.002632         0.0716 
  76   0.0000       0.023664         0.6439 
  77   0.0000       0.035392         0.9631 
  78   0.0000       0.050018         1.3611 
  79   0.0000       0.050662         1.3786 
  80   0.0000       0.060507         1.6465 
  81   0.0000       0.065261         1.7758 
*Only the first 10 virtual orbitals were printed.

                    ********************************
                    * MULLIKEN POPULATION ANALYSIS *
                    ********************************

-----------------------
MULLIKEN ATOMIC CHARGES
-----------------------
   0 O :   -0.395509
   1 O :   -0.398998
   2 C :    0.152685
   3 C :    0.058949
   4 C :    0.085858
   5 C :   -0.277896
   6 C :    0.131827
   7 C :   -0.257910
   8 C :    0.194271
   9 C :   -0.250335
  10 C :    0.255836
  11 C :   -0.250162
  12 C :   -0.197062
  13 C :   -0.139021
  14 C :   -0.197810
  15 C :   -0.227215
  16 C :   -0.146184
  17 C :   -0.087815
  18 C :   -0.264742
  19 C :   -0.265757
  20 H :    0.123438
  21 H :    0.118397
  22 H :    0.145197
  23 H :    0.129725
  24 H :    0.117469
  25 H :    0.102586
  26 H :    0.105888
  27 H :    0.095454
  28 H :    0.111835
  29 H :    0.105058
  30 H :    0.117495
  31 H :    0.101791
  32 H :    0.322105
  33 H :    0.322924
  34 H :    0.124624
  35 H :    0.123605
  36 H :    0.108658
  37 H :    0.100740
Sum of atomic charges:    0.0000000

--------------------------------
MULLIKEN REDUCED ORBITAL CHARGES
--------------------------------
  0 O s       :     3.765754  s :     3.765754
      pz      :     1.465432  p :     4.597159
      px      :     1.404678
      py      :     1.727050
      dz2     :     0.010425  d :     0.030904
      dxz     :     0.004195
      dyz     :     0.006715
      dx2y2   :     0.004100
      dxy     :     0.005468
      f0      :     0.000261  f :     0.001692
      f+1     :     0.000385
      f-1     :     0.000261
      f+2     :     0.000188
      f-2     :     0.000159
      f+3     :     0.000077
      f-3     :     0.000360

  1 O s       :     3.764888  s :     3.764888
      pz      :     1.538716  p :     4.601724
      px      :     1.329321
      py      :     1.733687
      dz2     :     0.005241  d :     0.030689
      dxz     :     0.012392
      dyz     :     0.003819
      dx2y2   :     0.004456
      dxy     :     0.004781
      f0      :     0.000022  f :     0.001697
      f+1     :     0.000378
      f-1     :     0.000044
      f+2     :     0.000322
      f-2     :     0.000212
      f+3     :     0.000324
      f-3     :     0.000396

  2 C s       :     3.233954  s :     3.233954
      pz      :     0.822721  p :     2.497178
      px      :     0.753382
      py      :     0.921075
      dz2     :     0.021532  d :     0.106557
      dxz     :     0.025808
      dyz     :     0.019434
      dx2y2   :     0.020249
      dxy     :     0.019535
      f0      :     0.001588  f :     0.009626
      f+1     :     0.001451
      f-1     :     0.001406
      f+2     :     0.001489
      f-2     :     0.001427
      f+3     :     0.001169
      f-3     :     0.001095

  3 C s       :     3.275110  s :     3.275110
      pz      :     0.876755  p :     2.536262
      px      :     0.736719
      py      :     0.922788
      dz2     :     0.027234  d :     0.119954
      dxz     :     0.026510
      dyz     :     0.019034
      dx2y2   :     0.023584
      dxy     :     0.023591
      f0      :     0.001441  f :     0.009725
      f+1     :     0.002159
      f-1     :     0.000676
      f+2     :     0.001311
      f-2     :     0.001781
      f+3     :     0.001157
      f-3     :     0.001200

  4 C s       :     3.208406  s :     3.208406
      pz      :     0.837117  p :     2.578595
      px      :     0.825014
      py      :     0.916464
      dz2     :     0.028967  d :     0.117505
      dxz     :     0.024826
      dyz     :     0.019257
      dx2y2   :     0.022092
      dxy     :     0.022362
      f0      :     0.001479  f :     0.009636
      f+1     :     0.001917
      f-1     :     0.000768
      f+2     :     0.001537
      f-2     :     0.001565
      f+3     :     0.001439
      f-3     :     0.000930

  5 C s       :     3.249138  s :     3.249138
      pz      :     0.999302  p :     2.935405
      px      :     0.958380
      py      :     0.977723
      dz2     :     0.016060  d :     0.085738
      dxz     :     0.018770
      dyz     :     0.011287
      dx2y2   :     0.016568
      dxy     :     0.023053
      f0      :     0.000584  f :     0.007614
      f+1     :     0.001551
      f-1     :     0.000751
      f+2     :     0.001110
      f-2     :     0.001214
      f+3     :     0.001380
      f-3     :     0.001025

  6 C s       :     3.170148  s :     3.170148
      pz      :     0.835062  p :     2.564357
      px      :     0.833543
      py      :     0.895752
      dz2     :     0.028157  d :     0.123867
      dxz     :     0.029284
      dyz     :     0.020933
      dx2y2   :     0.026788
      dxy     :     0.018705
      f0      :     0.001397  f :     0.009801
      f+1     :     0.001817
      f-1     :     0.001427
      f+2     :     0.001533
      f-2     :     0.001279
      f+3     :     0.001437
      f-3     :     0.000910

  7 C s       :     3.271248  s :     3.271248
      pz      :     0.946755  p :     2.897849
      px      :     0.962046
      py      :     0.989048
      dz2     :     0.016318  d :     0.081252
      dxz     :     0.019554
      dyz     :     0.019129
      dx2y2   :     0.011251
      dxy     :     0.014999
      f0      :     0.001440  f :     0.007562
      f+1     :     0.001243
      f-1     :     0.000859
      f+2     :     0.000859
      f-2     :     0.001394
      f+3     :     0.001234
      f-3     :     0.000532

  8 C s       :     3.065705  s :     3.065705
      pz      :     0.745547  p :     2.554432
      px      :     0.915298
      py      :     0.893587
      dz2     :     0.039756  d :     0.169985
      dxz     :     0.035946
      dyz     :     0.039353
      dx2y2   :     0.030272
      dxy     :     0.024657
      f0      :     0.003213  f :     0.015606
      f+1     :     0.002695
      f-1     :     0.002702
      f+2     :     0.002226
      f-2     :     0.001947
      f+3     :     0.001718
      f-3     :     0.001106

  9 C s       :     3.268667  s :     3.268667
      pz      :     0.936262  p :     2.889421
      px      :     0.994033
      py      :     0.959126
      dz2     :     0.016014  d :     0.084977
      dxz     :     0.027993
      dyz     :     0.010916
      dx2y2   :     0.018246
      dxy     :     0.011809
      f0      :     0.001390  f :     0.007270
      f+1     :     0.001099
      f-1     :     0.000682
      f+2     :     0.001247
      f-2     :     0.001011
      f+3     :     0.001249
      f-3     :     0.000592

 10 C s       :     3.046147  s :     3.046147
      pz      :     0.890727  p :     2.511349
      px      :     0.744682
      py      :     0.875940
      dz2     :     0.033047  d :     0.171117
      dxz     :     0.046492
      dyz     :     0.024117
      dx2y2   :     0.033018
      dxy     :     0.034444
      f0      :     0.002031  f :     0.015550
      f+1     :     0.003120
      f-1     :     0.000857
      f+2     :     0.001898
      f-2     :     0.002943
      f+3     :     0.002725
      f-3     :     0.001976

 11 C s       :     3.284984  s :     3.284984
      pz      :     1.001126  p :     2.879380
      px      :     0.959181
      py      :     0.919072
      dz2     :     0.011357  d :     0.080375
      dxz     :     0.015569
      dyz     :     0.019402
      dx2y2   :     0.013587
      dxy     :     0.020460
      f0      :     0.000283  f :     0.005424
      f+1     :     0.000844
      f-1     :     0.000503
      f+2     :     0.000864
      f-2     :     0.001290
      f+3     :     0.000658
      f-3     :     0.000982

 12 C s       :     3.249432  s :     3.249432
      pz      :     0.877714  p :     2.859621
      px      :     0.962525
      py      :     1.019382
      dz2     :     0.031272  d :     0.082480
      dxz     :     0.015227
      dyz     :     0.015595
      dx2y2   :     0.013698
      dxy     :     0.006687
      f0      :     0.001101  f :     0.005530
      f+1     :     0.001376
      f-1     :     0.000898
      f+2     :     0.000699
      f-2     :     0.000598
      f+3     :     0.000097
      f-3     :     0.000760

 13 C s       :     3.207553  s :     3.207553
      pz      :     0.938316  p :     2.841783
      px      :     0.947522
      py      :     0.955945
      dz2     :     0.023461  d :     0.082268
      dxz     :     0.018110
      dyz     :     0.018900
      dx2y2   :     0.012209
      dxy     :     0.009588
      f0      :     0.001425  f :     0.007416
      f+1     :     0.000967
      f-1     :     0.001268
      f+2     :     0.001229
      f-2     :     0.001142
      f+3     :     0.000531
      f-3     :     0.000853

 14 C s       :     3.266255  s :     3.266255
      pz      :     0.979911  p :     2.849799
      px      :     0.908071
      py      :     0.961818
      dz2     :     0.012224  d :     0.074183
      dxz     :     0.017259
      dyz     :     0.010072
      dx2y2   :     0.014031
      dxy     :     0.020598
      f0      :     0.000559  f :     0.007572
      f+1     :     0.001502
      f-1     :     0.000788
      f+2     :     0.001094
      f-2     :     0.001255
      f+3     :     0.001364
      f-3     :     0.001009

 15 C s       :     3.276506  s :     3.276506
      pz      :     0.945067  p :     2.870678
      px      :     0.945767
      py      :     0.979844
      dz2     :     0.015248  d :     0.072460
      dxz     :     0.015820
      dyz     :     0.016611
      dx2y2   :     0.012727
      dxy     :     0.012054
      f0      :     0.001369  f :     0.007571
      f+1     :     0.001220
      f-1     :     0.000888
      f+2     :     0.000917
      f-2     :     0.001396
      f+3     :     0.001246
      f-3     :     0.000535

 16 C s       :     3.243891  s :     3.243891
      pz      :     0.989221  p :     2.816213
      px      :     0.939984
      py      :     0.887007
      dz2     :     0.004320  d :     0.079302
      dxz     :     0.019511
      dyz     :     0.012953
      dx2y2   :     0.015006
      dxy     :     0.027513
      f0      :     0.000837  f :     0.006778
      f+1     :     0.000483
      f-1     :     0.000520
      f+2     :     0.001090
      f-2     :     0.001003
      f+3     :     0.001354
      f-3     :     0.001491

 17 C s       :     3.212907  s :     3.212907
      pz      :     0.919487  p :     2.789374
      px      :     0.917386
      py      :     0.952501
      dz2     :     0.027351  d :     0.078510
[...]
      dx2y2   :     0.071962
      dxy     :     0.028145
      f0      :     0.002931  f :     0.028319
      f+1     :     0.003476
      f-1     :     0.004951
      f+2     :     0.005020
      f-2     :     0.005489
      f+3     :     0.002921
      f-3     :     0.003531

 20 H s       :     0.788029  s :     0.788029
      pz      :     0.029129  p :     0.058986
      px      :     0.010720
      py      :     0.019137

 21 H s       :     0.786701  s :     0.786701
      pz      :     0.019615  p :     0.059282
      px      :     0.017854
      py      :     0.021813

 22 H s       :     0.788131  s :     0.788131
      pz      :     0.019422  p :     0.059323
      px      :     0.026576
      py      :     0.013324

 23 H s       :     0.791361  s :     0.791361
      pz      :     0.017601  p :     0.057902
      px      :     0.022585
      py      :     0.017715

 24 H s       :     0.788805  s :     0.788805
      pz      :     0.025756  p :     0.057895
      px      :     0.013746
      py      :     0.018394

 25 H s       :     0.796322  s :     0.796322
      pz      :     0.011889  p :     0.057549
      px      :     0.013211
      py      :     0.032450

 26 H s       :     0.795942  s :     0.795942
      pz      :     0.012215  p :     0.057333
      px      :     0.027096
      py      :     0.018022

 27 H s       :     0.798187  s :     0.798187
      pz      :     0.013080  p :     0.058184
      px      :     0.028741
      py      :     0.016363

 28 H s       :     0.790985  s :     0.790985
      pz      :     0.029042  p :     0.059391
      px      :     0.010861
      py      :     0.019489

 29 H s       :     0.793231  s :     0.793231
      pz      :     0.020018  p :     0.059325
      px      :     0.017021
      py      :     0.022285

 30 H s       :     0.796754  s :     0.796754
      pz      :     0.017400  p :     0.058848
      px      :     0.019986
      py      :     0.021461

 31 H s       :     0.802171  s :     0.802171
      pz      :     0.011761  p :     0.058297
      px      :     0.014266
      py      :     0.032270

 32 H s       :     0.658387  s :     0.658387
      pz      :     0.030049  p :     0.157117
      px      :     0.077087
      py      :     0.049982

 33 H s       :     0.656731  s :     0.656731
      pz      :     0.072934  p :     0.160691
      px      :     0.046811
      py      :     0.040946

 34 H s       :     0.814070  s :     0.814070
      pz      :     0.016776  p :     0.062108
      px      :     0.013396
      py      :     0.031935

 35 H s       :     0.814746  s :     0.814746
      pz      :     0.018772  p :     0.061734
      px      :     0.021073
      py      :     0.021889

 36 H s       :     0.819888  s :     0.819888
      pz      :     0.024058  p :     0.061637
      px      :     0.023151
      py      :     0.014428

 37 H s       :     0.820451  s :     0.820451
      pz      :     0.012538  p :     0.061319
      px      :     0.014943
      py      :     0.033838



                      *****************************
                      * MAYER POPULATION ANALYSIS *
                      *****************************

  NA   - Mulliken gross atomic population
  ZA   - Total nuclear charge
  QA   - Mulliken gross atomic charge
  VA   - Mayer's total valence
  BVA  - Mayer's bonded valence
  FA   - Mayer's free valence

  ATOM       NA         ZA         QA         VA         BVA        FA
  0 O      8.3951     8.0000    -0.3951     2.0892     2.0892     0.0000
  1 O      8.3993     8.0000    -0.3993     2.0825     2.0825     0.0000
  2 C      5.8405     6.0000     0.1595     3.3042     3.3042    -0.0000
  3 C      5.9377     6.0000     0.0623     3.7161     3.7161     0.0000
  4 C      5.9151     6.0000     0.0849     3.4901     3.4901     0.0000
  5 C      6.2833     6.0000    -0.2833     3.9765     3.9765     0.0000
  6 C      5.8911     6.0000     0.1089     3.7468     3.7468    -0.0000
  7 C      6.2531     6.0000    -0.2531     3.8570     3.8570    -0.0000
  8 C      5.8068     6.0000     0.1932     4.0068     4.0068     0.0000
  9 C      6.2548     6.0000    -0.2548     3.8788     3.8788    -0.0000
 10 C      5.7385     6.0000     0.2615     3.9386     3.9386    -0.0000
 11 C      6.2523     6.0000    -0.2523     3.9254     3.9254     0.0000
 12 C      6.1825     6.0000    -0.1825     3.8717     3.8717     0.0000
 13 C      6.1397     6.0000    -0.1397     3.9223     3.9223     0.0000
 14 C      6.2020     6.0000    -0.2020     3.9259     3.9259    -0.0000
 15 C      6.2280     6.0000    -0.2280     3.9668     3.9668     0.0000
 16 C      6.1392     6.0000    -0.1392     3.8118     3.8118     0.0000
 17 C      6.0885     6.0000    -0.0885     3.8353     3.8353    -0.0000
 18 C      6.2719     6.0000    -0.2719     3.9064     3.9064     0.0000
 19 C      6.2670     6.0000    -0.2670     3.9387     3.9387    -0.0000
 20 H      0.8757     1.0000     0.1243     0.9806     0.9806    -0.0000
 21 H      0.8720     1.0000     0.1280     0.9811     0.9811     0.0000
 22 H      0.8514     1.0000     0.1486     0.9672     0.9672    -0.0000
 23 H      0.8702     1.0000     0.1298     0.9638     0.9638     0.0000
 24 H      0.8831     1.0000     0.1169     0.9747     0.9747     0.0000
 25 H      0.9012     1.0000     0.0988     0.9691     0.9691     0.0000
 26 H      0.8946     1.0000     0.1054     0.9695     0.9695     0.0000
 27 H      0.9055     1.0000     0.0945     0.9743     0.9743     0.0000
 28 H      0.8887     1.0000     0.1113     0.9893     0.9893     0.0000
 29 H      0.8953     1.0000     0.1047     0.9891     0.9891     0.0000
 30 H      0.8822     1.0000     0.1178     0.9773     0.9773     0.0000
 31 H      0.8988     1.0000     0.1012     0.9754     0.9754    -0.0000
 32 H      0.6777     1.0000     0.3223     0.9202     0.9202     0.0000
 33 H      0.6776     1.0000     0.3224     0.9241     0.9241     0.0000
 34 H      0.8752     1.0000     0.1248     0.9760     0.9760     0.0000
 35 H      0.8746     1.0000     0.1254     0.9755     0.9755     0.0000
 36 H      0.8915     1.0000     0.1085     0.9743     0.9743    -0.0000
 37 H      0.8982     1.0000     0.1018     0.9777     0.9777    -0.0000

  Mayer bond orders larger than 0.100000
B(  0-O ,  8-C ) :   1.1586 B(  0-O , 32-H ) :   0.8645 B(  1-O , 10-C ) :   1.1277 
B(  1-O , 33-H ) :   0.8600 B(  2-C ,  3-C ) :   0.8571 B(  2-C ,  7-C ) :   1.3187 
B(  2-C ,  8-C ) :   1.2335 B(  3-C ,  5-C ) :   1.4267 B(  3-C ,  9-C ) :   1.3290 
B(  4-C ,  5-C ) :   1.3475 B(  4-C , 10-C ) :   1.2620 B(  4-C , 11-C ) :   0.9030 
B(  5-C , 20-H ) :   0.9514 B(  6-C ,  7-C ) :   1.3890 B(  6-C , 12-C ) :   0.9210 
B(  6-C , 13-C ) :   1.3673 B(  7-C , 21-H ) :   0.9639 B(  8-C , 15-C ) :   1.4243 
B(  9-C , 14-C ) :   1.4121 B(  9-C , 22-H ) :   0.9822 B( 10-C , 14-C ) :   1.4092 
B( 11-C , 16-C ) :   0.9576 B( 11-C , 23-H ) :   0.9796 B( 11-C , 24-H ) :   0.9672 
B( 12-C , 17-C ) :   0.9661 B( 12-C , 25-H ) :   0.9606 B( 12-C , 26-H ) :   0.9737 
B( 13-C , 15-C ) :   1.4200 B( 13-C , 27-H ) :   0.9778 B( 14-C , 28-H ) :   0.9832 
B( 15-C , 29-H ) :   0.9840 B( 16-C , 18-C ) :   1.8892 B( 16-C , 30-H ) :   0.9563 
B( 17-C , 19-C ) :   1.9271 B( 17-C , 31-H ) :   0.9544 B( 18-C , 34-H ) :   0.9678 
B( 18-C , 35-H ) :   0.9641 B( 19-C , 36-H ) :   0.9667 B( 19-C , 37-H ) :   0.9623 


-------
TIMINGS
-------

Total SCF time: 0 days 0 hours 1 min 11 sec 

Total time                  ....      71.519 sec
Sum of individual times     ....      71.375 sec  ( 99.8%)

SCF preparation             ....       0.441 sec  (  0.6%)
Fock matrix formation       ....      69.850 sec  ( 97.7%)
  Startup                   ....       0.036 sec  (  0.1% of F)
  Split-RI-J                ....       4.140 sec  (  5.9% of F)
  Chain of spheres X        ....      60.980 sec  ( 87.3% of F)
  XC integration            ....       4.590 sec  (  6.6% of F)
    Basis function eval.    ....       1.107 sec  ( 24.1% of XC)
    Density eval.           ....       1.316 sec  ( 28.7% of XC)
    XC-Functional eval.     ....       0.109 sec  (  2.4% of XC)
    XC-Potential eval.      ....       1.924 sec  ( 41.9% of XC)
Diagonalization             ....       0.000 sec  (  0.0%)
Density matrix formation    ....       0.077 sec  (  0.1%)
Total Energy calculation    ....       0.044 sec  (  0.1%)
Population analysis         ....       0.142 sec  (  0.2%)
Orbital Transformation      ....       0.152 sec  (  0.2%)
Orbital Orthonormalization  ....       0.000 sec  (  0.0%)
DIIS solution               ....       0.187 sec  (  0.3%)
SOSCF solution              ....       0.481 sec  (  0.7%)
Finished LeanSCF after  71.6 sec

Maximum memory used throughout the entire LEANSCF-calculation: 114.5 MB


-------------------------------------------------------------------------------
                          DFT DISPERSION CORRECTION                            
                                                                               
                              DFTD3 V3.1  Rev 1                                
                          USING Becke-Johnson damping                          
-------------------------------------------------------------------------------
The B3LYP functional is recognized
Active option DFTDOPT                   ...         4   

molecular C6(AA) [au] = 16044.737889 


            DFT-D V3
 parameters
 s6 scaling factor         :     1.0000 
 a1 scaling factor         :     0.3981 
 s8 scaling factor         :     1.9889 
 a2 scaling factor         :     4.4211 
 ad hoc parameters k1-k3   :    16.0000     1.3333    -4.0000 

 Edisp/kcal,au: -50.457981259160  -0.080409902898 
 E6   /kcal   : -23.784648551 
 E8   /kcal   : -26.673332708 
 % E8         :  52.862465049 

-------------------------   ----------------
Dispersion correction           -0.080409903
-------------------------   ----------------


-------------------------   --------------------
FINAL SINGLE POINT ENERGY      -847.048579207085
-------------------------   --------------------

                                *** OPTIMIZATION RUN DONE ***

--------------------------------------------------------------------------
WARNING: There was an error initializing an OpenFabrics device.

  Local host:   ga01
  Local device: mlx5_0
--------------------------------------------------------------------------


           ************************************************************
           *        Program running with 4 parallel MPI-processes     *
           *              working on a common directory               *
           ************************************************************

------------------------------------------------------------------------------
                              ORCA PROPERTY CALCULATIONS
------------------------------------------------------------------------------

GBWName                                 ... honokiol3.gbw
Number of atoms                         ...     38
Number of basis functions               ...    728
Max core memory                         ...   5000 MB

Electric properties:
Dipole moment                           ... YES
Quadrupole moment                       ...  NO
Static polarizability (Dipole/Dipole)   ...  NO
Static polarizability (Dipole/Quad.)    ...  NO
Static polarizability (Quad./Quad.)     ...  NO
Static polarizability (Velocity)        ...  NO

Atomic electric properties:
Dipole moment                           ...  NO
Quadrupole moment                       ...  NO
Static polarizability                   ...  NO

Choice of electric origin               ... Center of mass
Position of electric origin             ...    -0.079700    -1.131748    -0.025186

General magnetic properties:
Magnetizability                         ...  NO

EPR properties:
g-Tensor (aka g-matrix)                 ...  NO
Zero-Field splitting spin-orbit         ...  NO
Zero-field splitting spin-spin          ...  NO
Hyperfine couplings                     ...  NO (   0 nuclei)
Quadrupole couplings                    ...  NO (   0 nuclei)
Contact density                         ...  NO (   0 nuclei)

NMR properties:
Chemical shifts                         ...  NO (   0 nuclei)
Spin-rotation constants                 ...  NO (   0 nuclei)
Spin-spin couplings                     ...  NO (   0 nuclei,    0 pairs)

Choice of magnetic origin               ... GIAO
Position of magnetic origin             ...     0.000000     0.000000     0.000000

Properties with geometric perturbations:
SCF Hessian                             ...  NO
IR spectrum                             ...  NO
VCD spectrum                            ...  NO
X-ray spectroscopy properties:
SCF XES/XAS/RIXS spectra                ...  NO


-------------
DIPOLE MOMENT
-------------

Method             : SCF
Type of density    : Electron Density
Multiplicity       :   1
Irrep              :   0
Energy             :  -846.9681693041870858 Eh
Relativity type    : 
Basis              : AO
                                X                 Y                 Z
Electronic contribution:      3.059825124       2.448944973      12.553705343
Nuclear contribution   :     -3.902944536      -2.776375324     -13.286703300
                        -----------------------------------------
Total Dipole Moment    :     -0.843119412      -0.327430351      -0.732997957
                        -----------------------------------------
Magnitude (a.u.)       :      1.164193705
Magnitude (Debye)      :      2.959145231



--------------------
Rotational spectrum 
--------------------
 
Rotational constants in cm-1:             0.016471             0.006355             0.004829 
Rotational constants in MHz :           493.783469           190.523312           144.766185 

Dipole components along the rotational axes: 
x,y,z [a.u.] :    -0.665938    -0.949758     0.099165 
x,y,z [Debye]:    -1.692680    -2.414093     0.252058 

 

Dipole moment calculation done in   0.0 sec 

Maximum memory used throughout the entire PROP-calculation: 66.0 MB
[ga01:1039919] 3 more processes have sent help message help-mpi-btl-openib.txt / error in device init
[ga01:1039919] Set MCA parameter "orte_base_help_aggregate" to 0 to see all help / error messages
--------------------------------------------------------------------------
WARNING: There was an error initializing an OpenFabrics device.

  Local host:   ga01
  Local device: mlx5_0
--------------------------------------------------------------------------
[ga01:1039939] 3 more processes have sent help message help-mpi-btl-openib.txt / error in device init
[ga01:1039939] Set MCA parameter "orte_base_help_aggregate" to 0 to see all help / error messages

--------------------------------
SUGGESTED CITATIONS FOR THIS RUN
--------------------------------

Below you find a list of papers that are relevant to this ORCA run
We neither can nor want to force you to cite these papers, but we appreciate if you do
You receive ORCA, which is the product of decades of hard work by many enthusiastic individuals, for free
The only thing we kindly ask in return is that you cite our papers,
We deeply appreciate it, if you show your appreciation for ORCA by not just citing the generic ORCA reference.

Please note that relegating all ORCA citations to the supporting information does *not* help us.
SI sections are not indexed - citations you put there will not count into any citation statistics
But we need these citations in order to attract the funding resources that allow us to do what we are doing

Therefore, if you are a happy ORCA user, please consider citing a few of the papers listed below in the main body of your paper

In addition to the list printed below, the program has created the file honokiol3.bibtex that contains the list in bibtex format
You can import this file easily into all common literature databanks and citation aid programs


List of essential papers. We consider these as the minimum necessary citations

  1. Neese,F.
     Software update: the ORCA program system, version 5.0
     WIRES Comput. Molec. Sci., 2022 12(1)e1606
     doi.org/10.1002/wcms.1606

List of papers to cite with high priority. The work reported in these papers was absolutely
necessary for this run to complete.
Our perspective: the developers of density functionals and basis sets usually get cited in chemistry papers
Good! But without the algorithms to do something with them, the functionals or basis sets would not do anything.
Hence, in our opinion, the algorithm design and method developments papers are equally worthy of getting cited

  1. Neese,F.
     An improvement of the resolution of the identity approximation for the formation of the Coulomb matrix
     J. Comp. Chem., 2003 24(14)1740-1747
     doi.org/10.1002/jcc.10318
  2. Neese,F.; Wennmohs,F.; Hansen,A.; Becker,U.
     Efficient, approximate and parallel Hartree-Fock and hybrid DFT calculations. A 'chain-of-spheres' algorithm for the Hartree-Fock exchange
     Chem. Phys., 2009 356(1-3)98-109
     doi.org/10.1016/j.chemphys.2008.10.036
  3. Helmich-Paris,B.; de Souza,B.; Neese,F.; Izsák,R.
     An improved chain of spheres for exchange algorithm
     J. Chem. Phys., 2021 155 104109
     doi.org/doi: 10.1063/5.0058766.
  4. Neese,F.
     The SHARK Integral Generation and Digestion System
     J. Comp. Chem., 2022  1-16
     doi.org/10.1002/jcc.26942
  5. Grimme,S.; Antony,J.; Ehrlich,S.; Krieg,H.
     A consistent and accurate ab initio parametrization of density functional dispersion correction (DFT-D) for the 94 elements H-Pu
     J. Chem. Phys., 2010 132 154104
     doi.org/10.1063/1.3382344
  6. Grimme,S.; Ehrlich,S.; Goerigk,L.
     Effect of the damping function in dispersion corrected density functional theory
     J. Comput. Chem., 2011 32(7)1456-1465
     doi.org/10.1002/jcc.21759

List of suggested additional citations. These are papers that are important in the 'surrounding' of 
of this run, or papers that preceded the highly important papers. If you like your results we are grateful for a citation.

  1. Izsak,R.; Neese,F.
     An overlap fitted chain of spheres exchange method
     J. Chem. Phys., 2011 135 144105
     doi.org/10.1063/1.3646921
  2. Izsak,R.; Hansen,A.; Neese,F.
     The resolution of identity and chain of spheres approximations for the LPNO-CCSD singles Fock term
     Molec. Phys., 2012 110 2413-2417
     doi.org/10.1080/00268976.2012.687466
  3. Neese,F.
     The ORCA program system
     WIRES Comput. Molec. Sci., 2012 2(1)73-78
     doi.org/10.1002/wcms.81
  4. Izsak,R.; Neese,F.; Klopper,W.
     Robust fitting techniques in the chain of spheres approximation to the Fock exchange: The role of the complementary space
     J. Chem. Phys., 2013 139 
     doi.org/10.1063/1.4819264
  5. Neese,F.
     Software update: the ORCA program system, version 4.0
     WIRES Comput. Molec. Sci., 2018 8(1)1-6
     doi.org/10.1002/wcms.1327
  6. Neese,F.; Wennmohs,F.; Becker,U.; Riplinger,C.
     The ORCA quantum chemistry program package
     J. Chem. Phys., 2020 152 Art. No. L224108
     doi.org/10.1063/5.0004608

List of optional additional citations

  1. Neese,F.
     Approximate second-order SCF convergence for spin unrestricted wavefunctions
     Chem. Phys. Lett., 2000 325(1-3)93-98
     doi.org/10.1016/s0009-2614(00)00662-x

Timings for individual modules:

Sum of individual times          ...     2438.453 sec (=  40.641 min)
Startup calculation              ...       62.027 sec (=   1.034 min)   2.5 %
SCF iterations                   ...     1534.650 sec (=  25.578 min)  62.9 %
Property calculations            ...        0.546 sec (=   0.009 min)   0.0 %
SCF Gradient evaluation          ...      841.052 sec (=  14.018 min)  34.5 %
Geometry relaxation              ...        0.178 sec (=   0.003 min)   0.0 %
                             ****ORCA TERMINATED NORMALLY****
TOTAL RUN TIME: 0 days 0 hours 40 minutes 46 seconds 418 msec
