
                                 *****************
                                 * O   R   C   A *
                                 *****************

                                            #,                                       
                                            ###                                      
                                            ####                                     
                                            #####                                    
                                            ######                                   
                                           ########,                                 
                                     ,,################,,,,,                         
                               ,,#################################,,                 
                          ,,##########################################,,             
                       ,#########################################, ''#####,          
                    ,#############################################,,   '####,        
                  ,##################################################,,,,####,       
                ,###########''''           ''''###############################       
              ,#####''   ,,,,##########,,,,          '''####'''          '####       
            ,##' ,,,,###########################,,,                        '##       
           ' ,,###''''                  '''############,,,                           
         ,,##''                                '''############,,,,        ,,,,,,###''
      ,#''                                            '''#######################'''  
     '                                                          ''''####''''         
             ,#######,   #######,   ,#######,      ##                                
            ,#'     '#,  ##    ##  ,#'     '#,    #''#        ,####,   ,####,        
            ##       ##  ##   ,#'  ##            #'  '#       #'       #'  '#        
            ##       ##  #######   ##           ,######,      #####,   #    #        
            '#,     ,#'  ##    ##  '#,     ,#' ,#      #,     #,   #   #,  ,#        
             '#######'   ##     ##  '#######'  #'      '#     '####' # '####'        



                #########################################################
                #                        -***-                          #
                #          Department of theory and spectroscopy        #
                #                                                       #
                #                      Frank Neese                      #
                #                                                       #
                #     Directorship, Architecture, Infrastructure        #
                #                    SHARK, DRIVERS                     #
                #        Core code/Algorithms in most modules           #
                #                                                       #
                #        Max Planck Institute fuer Kohlenforschung      #
                #                Kaiser Wilhelm Platz 1                 #
                #                 D-45470 Muelheim/Ruhr                 #
                #                      Germany                          #
                #                                                       #
                #                  All rights reserved                  #
                #                        -***-                          #
                #########################################################


                         Program Version 6.0.1  -  RELEASE   -


 With contributions from (in alphabetic order):
[Max-Planck-Institut fuer Kohlenforschung]                               
  Daniel Aravena         : Magnetic Suceptibility                        
  Michael Atanasov       : Ab Initio Ligand Field Theory (pilot matlab implementation)
  Alexander A. Auer      : GIAO ZORA, VPT2 properties, NMR spectrum      
  Ute Becker             : All parallelization in ORCA, NUMFREQ, NUMCALC 
  Giovanni Bistoni       : ED, misc. LED, open-shell LED, HFLD           
  Martin Brehm           : Molecular dynamics                            
  Dmytro Bykov           : pre 5.0 version of the SCF Hessian            
  Marcos Casanova-Páez   : Triplet and SCS-CIS(D). UHF-(DLPNO)-IP/EA/STEOM-CCSD. UHF-CVS-IP/STEOM-CCSD   
  Vijay G. Chilkuri      : MRCI spin determinant printing, contributions to CSF-ICE 
  Pauline Colinet        : FMM embedding                                 
  Dipayan Datta          : RHF DLPNO-CCSD density                        
  Achintya Kumar Dutta   : EOM-CC, STEOM-CC                              
  Nicolas Foglia         : Exact transition moments, OPA infrastructure, MCD improvements    
  Dmitry Ganyushin       : Spin-Orbit,Spin-Spin,Magnetic field MRCI      
  Miquel Garcia-Rates    : C-PCM and meta-GGA Hessian, CCSD/C-PCM, Gaussian charge scheme 
  Tiago L. C. Gouveia    : GS-ROHF, GS-ROCIS                             
  Yang Guo               : DLPNO-NEVPT2, F12-NEVPT2, CIM, IAO-localization        
  Andreas Hansen         : Spin unrestricted coupled pair/coupled cluster methods 
  Ingolf Harden          : AUTO-CI MPn and infrastructure                
  Benjamin Helmich-Paris : MC-RPA, TRAH-(SCF,CASSCF), AVAS, COSX integrals, SCF dyn. polar. 
  Lee Huntington         : MR-EOM, pCC                                   
  Robert Izsak           : Overlap fitted RIJCOSX, COSX-SCS-MP3, EOM     
  Riya Kayal             : Wick's Theorem for AUTO-CI, AUTO-CI UHF-CCSDT 
  Emily Kempfer          : AUTO-CI, RHF CISDT and CCSDT                  
  Christian Kollmar      : KDIIS, OOCD, Brueckner-CCSD(T), CCSD density, CASPT2, CASPT2-K, improved NEVPT2 
  Axel Koslowski         : Symmetry handling                             
  Simone Kossmann        : meta-GGA functionals, TD-DFT gradient, OOMP2, (MP2 Hessian; deprecated post 5.0) 
  Lucas Lang             : DCDCAS                                        
  Marvin Lechner         : AUTO-CI (C++ implementation), FIC-MRCC        
  Spencer Leger          : CASSCF response                               
  Dagmar Lenk            : GEPOL surface, SMD, ORCA-2-JSON               
  Dimitrios Liakos       : Extrapolation schemes; Compound Job, initial MDCI parallelization 
  Dimitrios Manganas     : Further ROCIS development; embedding schemes. LFT, Crystal Embedding 
  Dimitrios Pantazis     : SARC Basis sets                               
  Anastasios Papadopoulos: AUTO-CI, single reference methods and gradients 
  Taras Petrenko         : pre 6.0 DFT Hessian and TD-DFT gradient, (ASA, deprecated), ECA, 1-Electron XAS/XES, NRVS 
  Peter Pinski           : DLPNO-MP2, DLPNO-MP2 Gradient                 
  Christoph Reimann      : Effective Core Potentials                     
  Marius Retegan         : Local ZFS, SOC                                
  Christoph Riplinger    : Optimizer, TS searches, QM/MM, DLPNO-CCSD(T), (RO)-DLPNO pert. Triples 
  Michael Roemelt        : Original ROCIS implementation                 
  Masaaki Saitow         : Open-shell DLPNO-CCSD energy and density      
  Barbara Sandhoefer     : DKH picture change effects                    
  Kantharuban Sivalingam : CASSCF convergence/infrastructure, NEVPT2 and variants, FIC-MRCI 
  Bernardo de Souza      : ESD, SOC TD-DFT                               
  Georgi L. Stoychev     : AutoAux, RI-MP2 NMR, DLPNO-MP2 response, X2C  
  Van Anh Tran           : RI-MP2 g-tensors                              
  Willem Van den Heuvel  : Paramagnetic NMR                              
  Zikuan Wang            : NOTCH, Electric field optimization            
  Frank Wennmohs         : Technical directorship and infrastructure     
  Hang Xu                : AUTO-CI-Response properties                   
                                                                         
[FACCTs GmbH]                                                            
  Markus Bursch, Miquel Garcia-Rates, Christoph Riplinger, Bernardo de Souza, Georgi L. Stoychev 
                                                                 
  APM, Basis sets (HGBS, AHGBS, def-TZVP (Ac-Lr), def2-XVPD (La-Lu)), CI-OPT, improved COSX, DLPNO-Multilevel,           
  DOCKER, DRACO, updates on ESD, GOAT, IRC, LR-CPCM, MBIS, meta-GGA TD-DFT gradient, ML-optimized integration grids, 
  MM, NACMEs, nearIR, NEB, NEB-TS, NL-DFT gradient (VV10), 2- and 3-layer-ONIOM, interface openCOSMO-RS, QMMM,   
  Crystal-QMMM, SF, symmetry and pop. for TD-DFT, r2SCAN hybrids, SOLVATOR                                   
                                                                         
[Other institutions]                                                     
  V. Asgeirsson          : NEB                                           
  Christoph Bannwarth    : sTDA-DFT, sTD-DFT, PBEh-3c, B97-3c, D3        
  Sebastian Ehlert       : rSCAN, r2SCAN, r2SCAN-3c, D4, dhf basis sets  
  Marvin Friede          : D4 for Fr, Ra, Ac-Lr                          
  Lars Goerigk           : TD-DFT with DH, B97 family of functionals     
  Stefan Grimme          : VdW corrections, initial TS optimization, DFT functionals, gCP, sTDA/sTD-DF 
  Waldemar Hujo          : DFT-NL                                        
  H. Jonsson             : NEB                                           
  Holger Kruse           : gCP                                           
  Marcel Mueller         : wB97X-3c, vDZP basis set                      
  Hagen Neugebauer       : wr2SCAN                                       
  Tobias Risthaus        : range-separated hybrid DFT                    
  Lukas Wittmann         : regularized MP2, r2SCAN double-hybrids, wr2SCAN        
                                                                         
We gratefully acknowledge several colleagues who have allowed us to      
interface, adapt or use parts of their codes:                            
  Ed Valeev, F. Pavosevic, A. Kumar             : LibInt (2-el integral package), F12 methods 
  Garnet Chan, S. Sharma, J. Yang, R. Olivares  : DMRG                   
  Ulf Ekstrom                                   : XCFun DFT Library      
  Mihaly Kallay                                 : mrcc  (arbitrary order and MRCC methods)
  Frank Weinhold                                : gennbo (NPA and NBO analysis)           
  Simon Mueller                                 : openCOSMO-RS                            
  Christopher J. Cramer and Donald G. Truhlar   : smd solvation model                     
  S Lehtola, MJT Oliveira, MAL Marques          : LibXC Library                           
  Liviu Ungur et al                             : ANISO software                          


 Your calculation uses the libint2 library for the computation of 2-el integrals
 For citations please refer to: http://libint.valeyev.net

 Your ORCA version has been built with support for libXC version: 6.2.2
 For citations please refer to: https://libxc.gitlab.io

 This ORCA versions uses:
   CBLAS   interface :  Fast vector & matrix operations
   LAPACKE interface :  Fast linear algebra routines
   SCALAPACK package :  Parallel linear algebra routines
   Shared memory     :  Shared parallel matrices
   BLAS/LAPACK       :  OpenBLAS 0.3.27  USE64BITINT DYNAMIC_ARCH NO_AFFINITY SkylakeX SINGLE_THREADED
        Core in use  :  SkylakeX
   Copyright (c) 2011-2014, The OpenBLAS Project


NOTE: MaxCore=5000 MB was set to SCF,MP2,MDCI,CIPSI,MRCI and CIS
      => If you want to overwrite this, your respective input block should be placed after the MaxCore statement
Warning: RI is on but no J-basis has been assigned. Assigning Def2/J (nothing to worry about!)
================================================================================

----- Orbital basis set information -----
Your calculation utilizes the basis: def2-TZVP
   F. Weigend and R. Ahlrichs, Phys. Chem. Chem. Phys. 7, 3297 (2005).

----- AuxJ basis set information -----
Your calculation utilizes the auxiliary basis: def2/J
   F. Weigend, Phys. Chem. Chem. Phys. 8, 1057 (2006).

================================================================================
                                        WARNINGS
                       Please study these warnings very carefully!
================================================================================

WARNING: Old DensityContainer found on disk!
         Will remove this file - 
         If you want to keep old densities, please start your calculation with a different basename. 


WARNING: Geometry Optimization
  ===> : Switching off AutoStart
         For restart on a previous wavefunction, please use MOREAD

================================================================================
                                       INPUT FILE
================================================================================
NAME = FEC.inp
|  1> ! Opt B3LYP def2-TZVP TightSCF TightOpt CPCM(water)
|  2> 
|  3> %maxcore 5000
|  4> 
|  5> %pal
|  6> nprocs 20
|  7> end
|  8> 
|  9> * xyz 0 1
| 10> F         -1.73320        0.68190       -0.74970
| 11> O          0.06590        0.89910        0.56450
| 12> O          0.48020       -1.13660       -0.30030
| 13> O          2.16930        0.41450       -0.21450
| 14> C         -1.18080        0.24700        0.41100
| 15> C         -0.81200       -1.19520        0.29280
| 16> C          1.01050        0.08940       -0.00390
| 17> H         -1.86370        0.46440        1.23610
| 18> H         -0.71650       -1.68710        1.26590
| 19> H         -1.49640       -1.75840       -0.34660
| 20> *
| 21> 
| 22>                          ****END OF INPUT****
================================================================================

                       *****************************
                       * Geometry Optimization Run *
                       *****************************

Geometry optimization settings:
Update method            Update   .... BFGS
Choice of coordinates    CoordSys .... (2022) Redundant Internals
Initial Hessian          InHess   .... Almloef's Model
Max. no of cycles        MaxIter  .... 50

Convergence Tolerances:
Energy Change            TolE     ....  1.0000e-06 Eh
Max. Gradient            TolMAXG  ....  1.0000e-04 Eh/bohr
RMS Gradient             TolRMSG  ....  3.0000e-05 Eh/bohr
Max. Displacement        TolMAXD  ....  1.0000e-03 bohr
RMS Displacement         TolRMSD  ....  6.0000e-04 bohr
Strict Convergence                .... False

------------------------------------------------------------------------------
                        ORCA OPTIMIZATION COORDINATE SETUP
------------------------------------------------------------------------------

The optimization will be done in redundant internal coordinates (2022)
Making redundant internal coordinates   ...  (2022 redundants) done
Evaluating the initial hessian          ...  (Almloef) done
Evaluating the coordinates              ...  done
Calculating the B-matrix                .... done
Calculating the G-matrix                .... done
Diagonalizing the G-matrix              .... done
The first mode is                       ....   19
The number of degrees of freedom        ....   24

    -----------------------------------------------------------------
                    Redundant Internal Coordinates


    -----------------------------------------------------------------
         Definition                    Initial Value    Approx d2E/dq
    -----------------------------------------------------------------
      1. B(C   4,O   1)                  1.4153         0.509941   
      2. B(C   4,F   0)                  1.3570         0.586923   
      3. B(C   5,O   2)                  1.4230         0.495674   
      4. B(C   5,C   4)                  1.4933         0.427504   
      5. B(C   6,O   2)                  1.3683         0.606113   
      6. B(C   6,O   3)                  1.2218         1.037972   
      7. B(C   6,O   1)                  1.3678         0.607078   
      8. B(H   7,C   4)                  1.0929         0.356299   
      9. B(H   8,C   5)                  1.0945         0.354149   
     10. B(H   9,C   5)                  1.0929         0.356284   
     11. A(C   4,O   1,C   6)          106.8880         0.412181   
     12. A(C   5,O   2,C   6)          107.3707         0.409996   
     13. A(F   0,C   4,O   1)          107.6789         0.407929   
     14. A(F   0,C   4,H   7)          109.1255         0.345449   
     15. A(O   1,C   4,C   5)          103.6518         0.389997   
     16. A(O   1,C   4,H   7)          112.1409         0.338812   
     17. A(C   5,C   4,H   7)          113.9662         0.331030   
     18. A(F   0,C   4,C   5)          110.0199         0.397994   
     19. A(C   4,C   5,H   8)          112.6570         0.330698   
     20. A(O   2,C   5,H   8)          108.0487         0.336873   
     21. A(C   4,C   5,H   9)          112.9137         0.331027   
     22. A(O   2,C   5,C   4)          102.5614         0.388070   
     23. A(H   8,C   5,H   9)          110.0709         0.289595   
     24. A(O   2,C   5,H   9)          110.2449         0.337210   
     25. A(O   1,C   6,O   2)          110.6574         0.425069   
     26. A(O   2,C   6,O   3)          124.6563         0.468447   
     27. A(O   1,C   6,O   3)          124.6860         0.468584   
     28. D(F   0,C   4,O   1,C   6)    -91.7081         0.020586   
     29. D(C   5,C   4,O   1,C   6)     24.8547         0.020586   
     30. D(H   7,C   4,O   1,C   6)    148.2293         0.020586   
     31. D(H   8,C   5,C   4,H   7)    -35.8208         0.014450   
     32. D(H   9,C   5,O   2,C   6)    144.3782         0.019414   
     33. D(O   2,C   5,C   4,F   0)     85.3404         0.014450   
     34. D(H   8,C   5,O   2,C   6)    -95.2975         0.019414   
     35. D(O   2,C   5,C   4,H   7)   -151.7320         0.014450   
     36. D(H   8,C   5,C   4,F   0)   -158.7483         0.014450   
     37. D(H   8,C   5,C   4,O   1)     86.3472         0.014450   
     38. D(O   2,C   5,C   4,O   1)    -29.5641         0.014450   
     39. D(C   4,C   5,O   2,C   6)     23.8916         0.019414   
     40. D(O   1,C   6,O   2,C   5)     -9.3215         0.026868   
     41. D(O   3,C   6,O   1,C   4)    169.6507         0.026959   
     42. D(O   2,C   6,O   1,C   4)    -10.5472         0.026959   
     43. D(O   3,C   6,O   2,C   5)    170.4806         0.026868   
    -----------------------------------------------------------------

Number of atoms                         .... 10
Number of degrees of freedom            .... 43


         *************************************************************
         *                GEOMETRY OPTIMIZATION CYCLE   1            *
         *************************************************************
---------------------------------
CARTESIAN COORDINATES (ANGSTROEM)
---------------------------------
  F     -1.733200    0.681900   -0.749700
  O      0.065900    0.899100    0.564500
  O      0.480200   -1.136600   -0.300300
  O      2.169300    0.414500   -0.214500
  C     -1.180800    0.247000    0.411000
  C     -0.812000   -1.195200    0.292800
  C      1.010500    0.089400   -0.003900
  H     -1.863700    0.464400    1.236100
  H     -0.716500   -1.687100    1.265900
  H     -1.496400   -1.758400   -0.346600

----------------------------
CARTESIAN COORDINATES (A.U.)
----------------------------
  NO LB      ZA    FRAG     MASS         X           Y           Z
   0 F     9.0000    0    18.998   -3.275273    1.288604   -1.416728
   1 O     8.0000    0    15.999    0.124533    1.699053    1.066750
   2 O     8.0000    0    15.999    0.907446   -2.147863   -0.567485
   3 O     8.0000    0    15.999    4.099383    0.783291   -0.405346
   4 C     6.0000    0    12.011   -2.231389    0.466762    0.776677
   5 C     6.0000    0    12.011   -1.534458   -2.258601    0.553312
   6 C     6.0000    0    12.011    1.909568    0.168942   -0.007370
   7 H     1.0000    0     1.008   -3.521883    0.877589    2.335890
   8 H     1.0000    0     1.008   -1.353989   -3.188157    2.392204
   9 H     1.0000    0     1.008   -2.827786   -3.322894   -0.654979

--------------------------------
INTERNAL COORDINATES (ANGSTROEM)
--------------------------------
 F      0   0   0     0.000000000000     0.00000000     0.00000000
 O      1   0   0     2.238539320629     0.00000000     0.00000000
 O      2   1   0     2.250243991215    80.47786342     0.00000000
 O      2   1   3     2.294770079986   121.12361754    47.00113868
 C      1   2   3     1.357021834754    37.04065833    73.55272648
 C      3   2   1     1.423018766566    73.13533398   304.68667103
 C      4   2   1     1.221826423843    29.34937335   304.27914466
 H      5   1   2     1.092888457254   109.12551984   121.95194377
 H      6   3   2     1.094536189443   108.04865756   259.17820879
 H      6   3   2     1.092899794126   110.24489356   138.85393584

---------------------------
INTERNAL COORDINATES (A.U.)
---------------------------
 F      0   0   0     0.000000000000     0.00000000     0.00000000
 O      1   0   0     4.230226256002     0.00000000     0.00000000
 O      2   1   0     4.252344877899    80.47786342     0.00000000
 O      2   1   3     4.336486991491   121.12361754    47.00113868
 C      1   2   3     2.564399625437    37.04065833    73.55272648
 C      3   2   1     2.689115752241    73.13533398   304.68667103
 C      4   2   1     2.308917324251    29.34937335   304.27914466
 H      5   1   2     2.065259879135   109.12551984   121.95194377
 H      6   3   2     2.068373641713   108.04865756   259.17820879
 H      6   3   2     2.065281302716   110.24489356   138.85393584

---------------------
BASIS SET INFORMATION
---------------------
There are 4 groups of distinct atoms

 Group   1 Type F   : 11s6p2d1f contracted to 5s3p2d1f pattern {62111/411/11/1}
 Group   2 Type O   : 11s6p2d1f contracted to 5s3p2d1f pattern {62111/411/11/1}
 Group   3 Type C   : 11s6p2d1f contracted to 5s3p2d1f pattern {62111/411/11/1}
 Group   4 Type H   : 5s1p contracted to 3s1p pattern {311/1}

Atom   0F    basis set group =>   1
Atom   1O    basis set group =>   2
Atom   2O    basis set group =>   2
Atom   3O    basis set group =>   2
Atom   4C    basis set group =>   3
Atom   5C    basis set group =>   3
Atom   6C    basis set group =>   3
Atom   7H    basis set group =>   4
Atom   8H    basis set group =>   4
Atom   9H    basis set group =>   4
---------------------------------
AUXILIARY/J BASIS SET INFORMATION
---------------------------------
There are 4 groups of distinct atoms

 Group   1 Type F   : 12s5p4d2f1g contracted to 6s4p3d1f1g pattern {711111/2111/211/2/1}
 Group   2 Type O   : 12s5p4d2f1g contracted to 6s4p3d1f1g pattern {711111/2111/211/2/1}
 Group   3 Type C   : 12s5p4d2f1g contracted to 6s4p3d1f1g pattern {711111/2111/211/2/1}
 Group   4 Type H   : 5s2p1d contracted to 3s1p1d pattern {311/2/1}

Atom   0F    basis set group =>   1
Atom   1O    basis set group =>   2
Atom   2O    basis set group =>   2
Atom   3O    basis set group =>   2
Atom   4C    basis set group =>   3
Atom   5C    basis set group =>   3
Atom   6C    basis set group =>   3
Atom   7H    basis set group =>   4
Atom   8H    basis set group =>   4
Atom   9H    basis set group =>   4


           ************************************************************
           *        Program running with 20 parallel MPI-processes    *
           *              working on a common directory               *
           ************************************************************
------------------------------------------------------------------------------
                             ORCA STARTUP CALCULATIONS
                           -- RI-GTO INTEGRALS CHOSEN --
------------------------------------------------------------------------------
------------------------------------------------------------------------------
                   ___                                                        
                  /   \      - P O W E R E D   B Y -                         
                 /     \                                                     
                 |  |  |   _    _      __       _____    __    __             
                 |  |  |  | |  | |    /  \     |  _  \  |  |  /  |          
                  \  \/   | |  | |   /    \    | | | |  |  | /  /          
                 / \  \   | |__| |  /  /\  \   | |_| |  |  |/  /          
                |  |  |   |  __  | /  /__\  \  |    /   |      \           
                |  |  |   | |  | | |   __   |  |    \   |  |\   \          
                \     /   | |  | | |  |  |  |  | |\  \  |  | \   \       
                 \___/    |_|  |_| |__|  |__|  |_| \__\ |__|  \__/        
                                                                              
                      - O R C A' S   B I G   F R I E N D -                    
                                      &                                       
                       - I N T E G R A L  F E E D E R -                       
                                                                              
 v1 FN, 2020, v2 2021, v3 2022-2024                                           
------------------------------------------------------------------------------


----------------------
SHARK INTEGRAL PACKAGE
----------------------

Number of atoms                             ...     10
Number of basis functions                   ...    235
Number of shells                            ...     89
Maximum angular momentum                    ...      3
Integral batch strategy                     ... SHARK/LIBINT Hybrid
RI-J (if used) integral strategy            ... SPLIT-RIJ (Revised 2003 algorithm where possible)
Printlevel                                  ...      1
Contraction scheme used                     ... SEGMENTED contraction
Prescreening option                         ... SCHWARTZ
   Thresh                                   ... 2.500e-11
   Tcut                                     ... 2.500e-12
   Tpresel                                  ... 2.500e-12 
Coulomb Range Separation                    ... NOT USED
Exchange Range Separation                   ... NOT USED
Multipole approximations                    ... NOT USED
Finite Nucleus Model                        ... NOT USED
CABS basis                                  ... NOT available
Auxiliary Coulomb fitting basis             ... AVAILABLE
   # of basis functions in Aux-J            ...    376
   # of shells in Aux-J                     ...    120
   Maximum angular momentum in Aux-J        ...      4
Auxiliary J/K fitting basis                 ... NOT available
Auxiliary Correlation fitting basis         ... NOT available
Auxiliary 'external' fitting basis          ... NOT available

Checking pre-screening integrals            ... done (  0.0 sec) Dimension = 89
Check shell pair data                       ... done (  0.0 sec)
Shell pair information
Shell pair cut-off parameter TPreSel        ...   2.5e-12
Total number of shell pairs                 ...      4005
Shell pairs after pre-screening             ...      3774
Total number of primitive shell pairs       ...     12724
Primitive shell pairs kept                  ...      9175
          la=0 lb=0:    884 shell pairs
          la=1 lb=0:   1016 shell pairs
          la=1 lb=1:    297 shell pairs
          la=2 lb=0:    572 shell pairs
          la=2 lb=1:    330 shell pairs
          la=2 lb=2:    102 shell pairs
          la=3 lb=0:    286 shell pairs
          la=3 lb=1:    164 shell pairs
          la=3 lb=2:     96 shell pairs
          la=3 lb=3:     27 shell pairs

Calculating one electron integrals          ... done (  0.0 sec)
Calculating RI/J V-Matrix + Cholesky decomp.... done (  0.0 sec)
Calculating Nuclear repulsion               ... done (  0.0 sec) ENN=    324.172599122515 Eh

Diagonalization of the overlap matrix:
Smallest eigenvalue                        ... 3.918e-04
Time for diagonalization                   ...    0.004 sec
Threshold for overlap eigenvalues          ... 1.000e-07
Number of eigenvalues below threshold      ... 0
Time for construction of square roots      ...    0.003 sec
Total time needed                          ...    0.010 sec

-------------------
DFT GRID GENERATION
-------------------

General Integration Accuracy     IntAcc      ... 4.388
Radial Grid Type                 RadialGrid  ... OptM3 with GC (2021)
Angular Grid (max. ang.)         AngularGrid ... 4 (Lebedev-302)
Angular grid pruning method      GridPruning ... 4 (adaptive)
Weight generation scheme         WeightScheme... mBecke (2022)
Basis function cutoff            BFCut       ... 1.0000e-11
Integration weight cutoff        WCut        ... 1.0000e-14
Partially contracted basis set               ... off
Rotationally invariant grid construction     ... off
Angular grids for H and He will be reduced by one unit

Total number of grid points                  ...    52194
Total number of batches                      ...      818
Average number of points per batch           ...       63
Average number of grid points per atom       ...     5219

--------------------
COSX GRID GENERATION
--------------------

GRIDX 1
-------
General Integration Accuracy     IntAcc      ... 3.816
Radial Grid Type                 RadialGrid  ... OptM3 with GC (2021)
Angular Grid (max. ang.)         AngularGrid ... 1 (Lebedev-50)
Angular grid pruning method      GridPruning ... 4 (adaptive)
Weight generation scheme         WeightScheme... mBecke (2022)
Basis function cutoff            BFCut       ... 1.0000e-11
Integration weight cutoff        WCut        ... 1.0000e-14
Partially contracted basis set               ... on
Rotationally invariant grid construction     ... off
Angular grids for H and He will be reduced by one unit

Total number of grid points                  ...     6627
Total number of batches                      ...       59
Average number of points per batch           ...      112
Average number of grid points per atom       ...      663
UseSFitting                                  ... on

GRIDX 2
-------
General Integration Accuracy     IntAcc      ... 4.020
Radial Grid Type                 RadialGrid  ... OptM3 with GC (2021)
Angular Grid (max. ang.)         AngularGrid ... 2 (Lebedev-110)
Angular grid pruning method      GridPruning ... 4 (adaptive)
Weight generation scheme         WeightScheme... mBecke (2022)
Basis function cutoff            BFCut       ... 1.0000e-11
Integration weight cutoff        WCut        ... 1.0000e-14
Partially contracted basis set               ... on
Rotationally invariant grid construction     ... off
Angular grids for H and He will be reduced by one unit

Total number of grid points                  ...    15131
Total number of batches                      ...      123
Average number of points per batch           ...      123
Average number of grid points per atom       ...     1513
UseSFitting                                  ... on

GRIDX 3
-------
General Integration Accuracy     IntAcc      ... 4.338
Radial Grid Type                 RadialGrid  ... OptM3 with GC (2021)
Angular Grid (max. ang.)         AngularGrid ... 3 (Lebedev-194)
Angular grid pruning method      GridPruning ... 4 (adaptive)
Weight generation scheme         WeightScheme... mBecke (2022)
Basis function cutoff            BFCut       ... 1.0000e-11
Integration weight cutoff        WCut        ... 1.0000e-14
Partially contracted basis set               ... on
Rotationally invariant grid construction     ... off
Angular grids for H and He will be reduced by one unit

Total number of grid points                  ...    33484
Total number of batches                      ...      265
Average number of points per batch           ...      126
Average number of grid points per atom       ...     3348
UseSFitting                                  ... on
Initializing property integral containers    ... done (  0.0 sec)

SHARK setup successfully completed in   0.5 seconds

Maximum memory used throughout the entire STARTUP-calculation: 17.7 MB


           ************************************************************
           *        Program running with 20 parallel MPI-processes    *
           *              working on a common directory               *
           ************************************************************
-------------------------------------------------------------------------------
                                 ORCA GUESS
                   Start orbitals & Density for SCF / CASSCF
-------------------------------------------------------------------------------

------------
SCF SETTINGS
------------
Hamiltonian:
 Density Functional     Method          .... DFT(GTOs)
 Exchange Functional    Exchange        .... B88
   X-Alpha parameter    XAlpha          ....  0.666667
   Becke's b parameter  XBeta           ....  0.004200
 Correlation Functional Correlation     .... LYP
 LDA part of GGA corr.  LDAOpt          .... VWN-5
 Gradients option       PostSCFGGA      .... off
 Hybrid DFT is turned on
   Fraction HF Exchange ScalHFX         ....  0.200000
   Scaling of DF-GGA-X  ScalDFX         ....  0.720000
   Scaling of DF-GGA-C  ScalDFC         ....  0.810000
   Scaling of DF-LDA-C  ScalLDAC        ....  1.000000
   Perturbative correction              ....  0.000000
   NL short-range parameter             ....  4.800000
 RI-approximation to the Coulomb term is turned on
   Number of AuxJ basis functions       .... 376
   RIJ-COSX (HFX calculated with COS-X)).... on


General Settings:
 Integral files         IntName         .... FEC
 Hartree-Fock type      HFTyp           .... RHF
 Total Charge           Charge          ....    0
 Multiplicity           Mult            ....    1
 Number of Electrons    NEL             ....   54
 Basis Dimension        Dim             ....  235
 Nuclear Repulsion      ENuc            ....    324.1725991225 Eh

Convergence Acceleration:
 AO-DIIS                CNVDIIS         .... on
   Start iteration      DIISMaxIt       ....    12
   Startup error        DIISStart       ....  0.200000
   # of expansion vecs  DIISMaxEq       ....     5
   Bias factor          DIISBfac        ....   1.050
   Max. coefficient     DIISMaxC        ....  10.000
 MO-DIIS                CNVKDIIS        .... off
 Trust-Rad. Augm. Hess. CNVTRAH         .... auto
   Auto Start mean grad. ratio tolernc. ....  1.125000
   Auto Start start iteration           ....    50
   Auto Start num. interpolation iter.  ....    10
   Max. Number of Micro iterations      ....    24
   Max. Number of Macro iterations      .... Maxiter - #DIIS iter
   Number of Davidson start vectors     ....     2
   Converg. threshold    (grad. norm)   ....   1.000e-05
   Grad. Scal. Fac. for Micro threshold ....   0.100
   Minimum threshold for Micro iter.    ....   1.000e-02
   NR start threshold (gradient norm)   ....   1.000e-04
   Initial trust radius                 ....   0.400
   Minimum AH scaling param. (alpha)    ....   1.000
   Maximum AH scaling param. (alpha)    .... 1000.000
   Quad. conv. algorithm                .... NR
   White noise on init. David. guess    .... on
   Maximum white noise                  ....   0.010
   Pseudo random numbers                .... off
   Inactive MOs                         .... canonical
   Orbital update algorithm             .... Taylor
   Preconditioner                       .... Diag
   Full preconditioner red. dimension   ....   250
 SOSCF                  CNVSOSCF        .... on
   Start iteration      SOSCFMaxIt      ....   150
   Startup grad/error   SOSCFStart      ....  0.003300
   Hessian update       SOSCFHessUp     .... L-BFGS
 Level Shifting         CNVShift        .... on
   Level shift para.    LevelShift      ....    0.2500
   Turn off err/grad.   ShiftErr        ....    0.0010
 Zerner damping         CNVZerner       .... off
 Static damping         CNVDamp         .... on
   Fraction old density DampFac         ....    0.7000
   Max. Damping (<1)    DampMax         ....    0.9800
   Min. Damping (>=0)   DampMin         ....    0.0000
   Turn off err/grad.   DampErr         ....    0.1000

SCF Procedure:
 Maximum # iterations   MaxIter         ....   125
 SCF integral mode      SCFMode         .... Direct
   Integral package                     .... SHARK and LIBINT hybrid scheme
 Reset frequency        DirectResetFreq ....    20
 Integral Threshold     Thresh          ....  2.500e-11 Eh
 Primitive CutOff       TCut            ....  2.500e-12 Eh

Convergence Tolerance:
 Convergence Check Mode ConvCheckMode   .... Total+1el-Energy
 Convergence forced     ConvForced      .... 0
 Energy Change          TolE            ....  1.000e-08 Eh
 1-El. energy change                    ....  1.000e-05 Eh
 Orbital Gradient       TolG            ....  1.000e-05
 Orbital Rotation angle TolX            ....  1.000e-05
 DIIS Error             TolErr          ....  5.000e-07

------------------------------
INITIAL GUESS: MODEL POTENTIAL
------------------------------
Loading Hartree-Fock densities                     ... done
Calculating cut-offs                               ... done
Initializing the effective Hamiltonian             ... done
Setting up the integral package (SHARK)            ... done
Starting the Coulomb interaction                   ... done (   0.0 sec)
Making the grid                                    ... done (   0.1 sec)
Mapping shells                                     ... done
Starting the XC term evaluation                    ... done (   0.0 sec)
  promolecular density results
     # of electrons  =     53.998991021
     EX              =    -50.988293538
     EC              =     -1.942355011
     EX+EC           =    -52.930648549
Transforming the Hamiltonian                       ... done (   0.0 sec)
Diagonalizing the Hamiltonian                      ... done (   0.0 sec)
Back transforming the eigenvectors                 ... done (   0.0 sec)
Now organizing SCF variables                       ... done
                      ------------------
                      INITIAL GUESS DONE (   0.1 sec)
                      ------------------
             **** ENERGY FILE WAS UPDATED (FEC.en.tmp) ****
Finished Guess after   0.6 sec
Maximum memory used throughout the entire GUESS-calculation: 12.6 MB


           ************************************************************
           *        Program running with 20 parallel MPI-processes    *
           *              working on a common directory               *
           ************************************************************

-------------------------------------------------------------------------------------------
                                      ORCA LEAN-SCF
                              memory conserving SCF solver
-------------------------------------------------------------------------------------------

--------------------
CPCM SOLVATION MODEL
--------------------
CPCM parameters:
  Epsilon                                         ...      80.1510
  Refrac                                          ...       1.3328
  Rsolv                                           ...       1.3000
  Surface type                                    ... GAUSSIAN VDW
  Discretization scheme                           ... Constant charge density
    Threshold for H atoms                         ...       5.0000 (charges/Ang^2)
    Threshold for non-H atoms                     ...       5.0000 (charges/Ang^2)
  Epsilon function type                           ...         CPCM
Solvent:                                          ... WATER
Radii:
  Scheme                                          ... Element-dependent radii
  Radius for F  used is    3.3335 Bohr (=   1.7640 Ang.)
  Radius for O  used is    3.4469 Bohr (=   1.8240 Ang.)
  Radius for C  used is    3.8550 Bohr (=   2.0400 Ang.)
  Radius for H  used is    2.4944 Bohr (=   1.3200 Ang.)
Calculating surface                               ...        done! (  0.0s)
Cavity surface points                             ...         1023
Cavity Volume                                     ...     721.6293
Cavity Surface-area                               ...     437.9938
Calculating surface distance matrix               ...        done! (  0.0s)
Performing Cholesky decomposition & store         ...        done! (  0.0s)
Overall time for CPCM initialization              ...                 0.0s

----------------------------------------D-I-I-S--------------------------------------------
Iteration    Energy (Eh)           Delta-E    RMSDP     MaxDP     DIISErr   Damp  Time(sec)
-------------------------------------------------------------------------------------------
               ***  Starting incremental Fock matrix formation  ***
    1    -441.4405512428970724     0.00e+00  1.52e-03  6.12e-02  3.11e-01  0.700   0.4
    2    -441.5405296959622774    -1.00e-01  9.15e-04  3.26e-02  1.13e-01  0.700   0.3
                               ***Turning on AO-DIIS***
    3    -441.5714472272652529    -3.09e-02  3.21e-04  7.81e-03  2.77e-02  0.700   0.3
    4    -441.5928432954848404    -2.14e-02  4.54e-04  1.33e-02  1.12e-02  0.000   0.3
    5    -441.6425441477570075    -4.97e-02  1.51e-04  3.51e-03  4.39e-03  0.000   0.3
                              *** Initializing SOSCF ***
---------------------------------------S-O-S-C-F--------------------------------------
Iteration    Energy (Eh)           Delta-E    RMSDP     MaxDP     MaxGrad    Time(sec)
--------------------------------------------------------------------------------------
    6    -441.6426718189492249    -1.28e-04  4.83e-05  9.14e-04  2.10e-03     0.3
               *** Restarting incremental Fock matrix formation ***
    7    -441.6426728773282093    -1.06e-06  3.68e-05  9.63e-04  3.79e-04     0.4
    8    -441.6426656466824170     7.23e-06  1.94e-05  6.42e-04  7.40e-04     0.3
    9    -441.6426769270341310    -1.13e-05  5.13e-06  1.92e-04  7.17e-05     0.3
   10    -441.6426767019730732     2.25e-07  3.27e-06  1.15e-04  1.19e-04     0.3
   11    -441.6426770386788121    -3.37e-07  3.47e-07  9.65e-06  2.53e-06     0.3
   12    -441.6426770409065057    -2.23e-09  1.72e-07  5.08e-06  2.62e-06     0.3
                 **** Energy Check signals convergence ****

               *****************************************************
               *                     SUCCESS                       *
               *           SCF CONVERGED AFTER  12 CYCLES          *
               *****************************************************

Recomputing exchange energy using gridx3       ... done (    0.426 sec)
Old exchange energy                            :    -10.275165605 Eh
New exchange energy                            :    -10.275172816 Eh
Exchange energy change after final integration :     -0.000007211 Eh
Total energy after final integration           :   -441.642684251 Eh
             **** ENERGY FILE WAS UPDATED (FEC.en.tmp) ****

----------------
TOTAL SCF ENERGY
----------------

Total Energy       :       -441.64268425147560 Eh          -12017.70841 eV

Components:
Nuclear Repulsion  :        324.17259912251484 Eh            8821.18488 eV
Electronic Energy  :       -765.79569253309819 Eh          -20838.36020 eV
One Electron Energy:      -1249.06248886265189 Eh          -33988.71827 eV
Two Electron Energy:        483.26679632955376 Eh           13150.35808 eV
CPCM Dielectric    :         -0.01958363032324 Eh              -0.53290 eV

Virial components:
Potential Energy   :       -881.52901684652488 Eh          -23987.62406 eV
Kinetic Energy     :        439.88633259504928 Eh           11969.91565 eV
Virial Ratio       :          2.00399273977453

DFT components:
N(Alpha)           :       26.999988118268 electrons
N(Beta)            :       26.999988118268 electrons
N(Total)           :       53.999976236536 electrons
E(X)               :      -40.937924549671 Eh       
E(C)               :       -2.279869981361 Eh       
E(XC)              :      -43.217794531032 Eh       

CPCM Solvation Model Properties:
Surface-charge          :         -0.01257532238992
Corrected charge        :          0.00000000000000
Outlying charge corr.   :          0.00001349370175 Eh               0.00037 eV
Free-energy (cav+disp)  :  This term is not implemented in the current solvation scheme

---------------
SCF CONVERGENCE
---------------

  Last Energy change         ...    2.2277e-09  Tolerance :   1.0000e-08
  Last MAX-Density change    ...    5.0798e-06  Tolerance :   1.0000e-07
  Last RMS-Density change    ...    1.7248e-07  Tolerance :   5.0000e-09
  Last DIIS Error            ...    2.1024e-03  Tolerance :   5.0000e-07
  Last Orbital Gradient      ...    2.6185e-06  Tolerance :   1.0000e-05
  Last Orbital Rotation      ...    2.2857e-06  Tolerance :   1.0000e-05


----------------
ORBITAL ENERGIES
----------------

  NO   OCC          E(Eh)            E(eV) 
   0   2.0000     -24.700099      -672.1239 
   1   2.0000     -19.212029      -522.7859 
   2   2.0000     -19.202913      -522.5378 
   3   2.0000     -19.140882      -520.8499 
   4   2.0000     -10.374865      -282.3144 
   5   2.0000     -10.327930      -281.0373 
   6   2.0000     -10.247919      -278.8601 
   7   2.0000      -1.250000       -34.0142 
   8   2.0000      -1.173090       -31.9214 
   9   2.0000      -1.071001       -29.1434 
  10   2.0000      -1.054089       -28.6832 
  11   2.0000      -0.790329       -21.5059 
  12   2.0000      -0.691461       -18.8156 
  13   2.0000      -0.639980       -17.4147 
  14   2.0000      -0.580271       -15.7900 
  15   2.0000      -0.567995       -15.4559 
  16   2.0000      -0.522928       -14.2296 
  17   2.0000      -0.503273       -13.6948 
  18   2.0000      -0.482012       -13.1162 
  19   2.0000      -0.471024       -12.8172 
  20   2.0000      -0.432385       -11.7658 
  21   2.0000      -0.421435       -11.4678 
  22   2.0000      -0.407001       -11.0751 
  23   2.0000      -0.371164       -10.0999 
  24   2.0000      -0.360532        -9.8106 
  25   2.0000      -0.330441        -8.9917 
  26   2.0000      -0.322934        -8.7875 
  27   0.0000      -0.004046        -0.1101 
  28   0.0000       0.040581         1.1043 
  29   0.0000       0.064486         1.7548 
  30   0.0000       0.086869         2.3638 
  31   0.0000       0.103422         2.8142 
  32   0.0000       0.111834         3.0432 
  33   0.0000       0.116693         3.1754 
  34   0.0000       0.144083         3.9207 
  35   0.0000       0.169821         4.6211 
  36   0.0000       0.176791         4.8107 
  37   0.0000       0.208109         5.6629 
*Only the first 10 virtual orbitals were printed.

                    ********************************
                    * MULLIKEN POPULATION ANALYSIS *
                    ********************************

-----------------------
MULLIKEN ATOMIC CHARGES
-----------------------
   0 F :   -0.223804
   1 O :   -0.246978
   2 O :   -0.261377
   3 O :   -0.373658
   4 C :    0.249426
   5 C :   -0.015820
   6 C :    0.417358
   7 H :    0.147838
   8 H :    0.145688
   9 H :    0.161327
Sum of atomic charges:    0.0000000

--------------------------------
MULLIKEN REDUCED ORBITAL CHARGES
--------------------------------
  0 F s       :     3.911146  s :     3.911146
      pz      :     1.586335  p :     5.296740
      px      :     1.840295
      py      :     1.870110
      dz2     :     0.004969  d :     0.015254
      dxz     :     0.004499
      dyz     :     0.003478
      dx2y2   :     0.001101
      dxy     :     0.001208
      f0      :     0.000139  f :     0.000665
      f+1     :     0.000186
      f-1     :     0.000128
      f+2     :     0.000079
      f-2     :     0.000106
      f+3     :     0.000015
      f-3     :     0.000013

  1 O s       :     3.773027  s :     3.773027
      pz      :     1.655615  p :     4.431800
      px      :     1.211009
      py      :     1.565175
      dz2     :     0.005219  d :     0.040114
      dxz     :     0.006651
      dyz     :     0.006395
      dx2y2   :     0.007329
      dxy     :     0.014519
      f0      :     0.000250  f :     0.002038
      f+1     :     0.000324
      f-1     :     0.000196
      f+2     :     0.000184
      f-2     :     0.000328
      f+3     :     0.000382
      f-3     :     0.000374

  2 O s       :     3.780781  s :     3.780781
      pz      :     1.652301  p :     4.437564
      px      :     1.358518
      py      :     1.426745
      dz2     :     0.005145  d :     0.041000
      dxz     :     0.007701
      dyz     :     0.006931
      dx2y2   :     0.012687
      dxy     :     0.008536
      f0      :     0.000261  f :     0.002031
      f+1     :     0.000250
      f-1     :     0.000211
      f+2     :     0.000322
      f-2     :     0.000217
      f+3     :     0.000372
      f-3     :     0.000398

  3 O s       :     3.803327  s :     3.803327
      pz      :     1.499966  p :     4.539908
      px      :     1.336398
      py      :     1.703544
      dz2     :     0.003059  d :     0.028608
      dxz     :     0.008998
      dyz     :     0.001110
      dx2y2   :     0.008051
      dxy     :     0.007390
      f0      :     0.000176  f :     0.001814
      f+1     :     0.000243
      f-1     :     0.000038
      f+2     :     0.000299
      f-2     :     0.000151
      f+3     :     0.000468
      f-3     :     0.000440

  4 C s       :     3.179563  s :     3.179563
      pz      :     0.754789  p :     2.347214
      px      :     0.736904
      py      :     0.855520
      dz2     :     0.035579  d :     0.202020
      dxz     :     0.056827
      dyz     :     0.040647
      dx2y2   :     0.032908
      dxy     :     0.036059
      f0      :     0.004496  f :     0.021779
      f+1     :     0.003022
      f-1     :     0.002671
      f+2     :     0.003294
      f-2     :     0.002792
      f+3     :     0.003072
      f-3     :     0.002433

  5 C s       :     3.226525  s :     3.226525
      pz      :     1.002699  p :     2.677695
      px      :     0.723314
      py      :     0.951682
      dz2     :     0.017079  d :     0.101236
      dxz     :     0.024459
      dyz     :     0.014313
      dx2y2   :     0.021163
      dxy     :     0.024223
      f0      :     0.000879  f :     0.010363
      f+1     :     0.001946
      f-1     :     0.000862
      f+2     :     0.001593
      f-2     :     0.001222
      f+3     :     0.001853
      f-3     :     0.002008

  6 C s       :     3.016769  s :     3.016769
      pz      :     0.767073  p :     2.260362
      px      :     0.750799
      py      :     0.742490
      dz2     :     0.027922  d :     0.274799
      dxz     :     0.066107
      dyz     :     0.035619
      dx2y2   :     0.065135
      dxy     :     0.080017
      f0      :     0.002415  f :     0.030711
      f+1     :     0.003356
      f-1     :     0.002407
      f+2     :     0.004089
      f-2     :     0.003508
      f+3     :     0.007153
      f-3     :     0.007784

  7 H s       :     0.831598  s :     0.831598
      pz      :     0.009537  p :     0.020564
      px      :     0.007449
      py      :     0.003578

  8 H s       :     0.833071  s :     0.833071
      pz      :     0.012070  p :     0.021242
      px      :     0.002797
      py      :     0.006374

  9 H s       :     0.817670  s :     0.817670
      pz      :     0.006742  p :     0.021003
      px      :     0.007196
      py      :     0.007065



                     *******************************
                     * LOEWDIN POPULATION ANALYSIS *
                     *******************************

----------------------
LOEWDIN ATOMIC CHARGES
----------------------
   0 F :    0.142199
   1 O :    0.277491
   2 O :    0.255159
   3 O :    0.045701
   4 C :   -0.397704
   5 C :   -0.240392
   6 C :   -0.539412
   7 H :    0.153213
   8 H :    0.150803
   9 H :    0.152942

-------------------------------
LOEWDIN REDUCED ORBITAL CHARGES
-------------------------------
  0 F s       :     3.604934  s :     3.604934
      pz      :     1.629014  p :     5.220985
      px      :     1.784715
      py      :     1.807256
      dz2     :     0.010747  d :     0.030406
      dxz     :     0.008121
      dyz     :     0.007136
      dx2y2   :     0.001923
      dxy     :     0.002479
      f0      :     0.000396  f :     0.001476
      f+1     :     0.000339
      f-1     :     0.000249
      f+2     :     0.000185
      f-2     :     0.000242
      f+3     :     0.000041
      f-3     :     0.000024

  1 O s       :     3.277234  s :     3.277234
      pz      :     1.550284  p :     4.336136
      px      :     1.256898
      py      :     1.528953
      dz2     :     0.011334  d :     0.101742
      dxz     :     0.019797
      dyz     :     0.009592
      dx2y2   :     0.022592
      dxy     :     0.038427
      f0      :     0.000562  f :     0.007398
      f+1     :     0.000777
      f-1     :     0.000419
      f+2     :     0.000648
      f-2     :     0.001539
      f+3     :     0.001982
      f-3     :     0.001471

  2 O s       :     3.277792  s :     3.277792
      pz      :     1.563619  p :     4.354784
      px      :     1.355910
      py      :     1.435256
      dz2     :     0.013246  d :     0.104867
      dxz     :     0.019103
      dyz     :     0.012397
      dx2y2   :     0.032498
      dxy     :     0.027623
      f0      :     0.000461  f :     0.007398
      f+1     :     0.000931
      f-1     :     0.000526
      f+2     :     0.001373
      f-2     :     0.000856
      f+3     :     0.001402
      f-3     :     0.001848

  3 O s       :     3.422345  s :     3.422345
      pz      :     1.408549  p :     4.464831
      px      :     1.467493
      py      :     1.588789
      dz2     :     0.008109  d :     0.061337
      dxz     :     0.013878
      dyz     :     0.001646
      dx2y2   :     0.021671
      dxy     :     0.016034
      f0      :     0.000500  f :     0.005786
      f+1     :     0.000948
      f-1     :     0.000127
      f+2     :     0.000728
      f-2     :     0.000386
      f+3     :     0.001544
      f-3     :     0.001552

  4 C s       :     2.782039  s :     2.782039
      pz      :     0.851239  p :     2.674906
      px      :     0.839664
      py      :     0.984003
      dz2     :     0.163992  d :     0.793749
      dxz     :     0.203758
      dyz     :     0.130309
      dx2y2   :     0.149286
      dxy     :     0.146404
      f0      :     0.026558  f :     0.147010
      f+1     :     0.020969
      f-1     :     0.020745
      f+2     :     0.018962
      f-2     :     0.020534
      f+3     :     0.020882
      f-3     :     0.018360

  5 C s       :     2.807595  s :     2.807595
      pz      :     1.018146  p :     2.887121
      px      :     0.825923
      py      :     1.043052
      dz2     :     0.079022  d :     0.473175
      dxz     :     0.103454
      dyz     :     0.076712
      dx2y2   :     0.109400
      dxy     :     0.104587
      f0      :     0.006105  f :     0.072501
      f+1     :     0.012442
      f-1     :     0.004441
      f+2     :     0.012406
      f-2     :     0.007677
      f+3     :     0.013870
      f-3     :     0.015560

  6 C s       :     2.752359  s :     2.752359
      pz      :     0.783956  p :     2.573471
      px      :     0.933101
      py      :     0.856414
      dz2     :     0.111089  d :     1.032333
      dxz     :     0.203817
      dyz     :     0.131439
      dx2y2   :     0.271814
      dxy     :     0.314173
      f0      :     0.012925  f :     0.181249
      f+1     :     0.017604
      f-1     :     0.013300
      f+2     :     0.026734
      f-2     :     0.021276
      f+3     :     0.043138
      f-3     :     0.046272

  7 H s       :     0.788567  s :     0.788567
      pz      :     0.027135  p :     0.058220
      px      :     0.020405
      py      :     0.010680

  8 H s       :     0.789304  s :     0.789304
      pz      :     0.034005  p :     0.059892
      px      :     0.008711
      py      :     0.017176

  9 H s       :     0.787142  s :     0.787142
      pz      :     0.020999  p :     0.059917
      px      :     0.020110
      py      :     0.018808



                      *****************************
                      * MAYER POPULATION ANALYSIS *
                      *****************************

  NA   - Mulliken gross atomic population
  ZA   - Total nuclear charge
  QA   - Mulliken gross atomic charge
  VA   - Mayer's total valence
  BVA  - Mayer's bonded valence
  FA   - Mayer's free valence

  ATOM       NA         ZA         QA         VA         BVA        FA
  0 F      9.2238     9.0000    -0.2238     1.0397     1.0397    -0.0000
  1 O      8.2470     8.0000    -0.2470     2.1300     2.1300     0.0000
  2 O      8.2614     8.0000    -0.2614     2.1191     2.1191     0.0000
  3 O      8.3737     8.0000    -0.3737     2.1388     2.1388    -0.0000
  4 C      5.7506     6.0000     0.2494     4.0300     4.0300    -0.0000
  5 C      6.0158     6.0000    -0.0158     3.8085     3.8085     0.0000
  6 C      5.5826     6.0000     0.4174     4.4576     4.4576     0.0000
  7 H      0.8522     1.0000     0.1478     0.9593     0.9593    -0.0000
  8 H      0.8543     1.0000     0.1457     0.9639     0.9639     0.0000
  9 H      0.8387     1.0000     0.1613     0.9627     0.9627     0.0000

  Mayer bond orders larger than 0.100000
B(  0-F ,  4-C ) :   1.0277 B(  1-O ,  4-C ) :   0.9806 B(  1-O ,  6-C ) :   1.1255 
B(  2-O ,  5-C ) :   0.9005 B(  2-O ,  6-C ) :   1.1755 B(  3-O ,  6-C ) :   2.0711 
B(  4-C ,  5-C ) :   1.0015 B(  4-C ,  7-H ) :   0.9621 B(  5-C ,  8-H ) :   0.9451 
B(  5-C ,  9-H ) :   0.9478 

-------
TIMINGS
-------

Total SCF time: 0 days 0 hours 0 min 4 sec 

Total time                  ....       4.886 sec
Sum of individual times     ....       4.827 sec  ( 98.8%)

SCF preparation             ....       0.588 sec  ( 12.0%)
Fock matrix formation       ....       3.809 sec  ( 78.0%)
  Startup                   ....       0.035 sec  (  0.9% of F)
  Split-RI-J                ....       0.294 sec  (  7.7% of F)
  Chain of spheres X        ....       2.378 sec  ( 62.4% of F)
  XC integration            ....       0.669 sec  ( 17.6% of F)
    Basis function eval.    ....       0.117 sec  ( 17.5% of XC)
    Density eval.           ....       0.114 sec  ( 17.0% of XC)
    XC-Functional eval.     ....       0.019 sec  (  2.8% of XC)
    XC-Potential eval.      ....       0.172 sec  ( 25.7% of XC)
  CPCM terms                ....       0.353 sec  (  9.3% of F)
Diagonalization             ....       0.000 sec  (  0.0%)
Density matrix formation    ....       0.066 sec  (  1.4%)
Total Energy calculation    ....       0.051 sec  (  1.0%)
Population analysis         ....       0.021 sec  (  0.4%)
Orbital Transformation      ....       0.032 sec  (  0.7%)
Orbital Orthonormalization  ....       0.000 sec  (  0.0%)
DIIS solution               ....       0.169 sec  (  3.5%)
SOSCF solution              ....       0.091 sec  (  1.9%)
Finished LeanSCF after   4.9 sec

Maximum memory used throughout the entire LEANSCF-calculation: 20.4 MB

-------------------------   --------------------
FINAL SINGLE POINT ENERGY      -441.642684251476
-------------------------   --------------------



           ************************************************************
           *        Program running with 20 parallel MPI-processes    *
           *              working on a common directory               *
           ************************************************************
------------------------------------------------------------------------------
                         ORCA SCF GRADIENT CALCULATION
------------------------------------------------------------------------------

Nuc. rep. gradient        (SHARK) ... done (  0.0 sec)
HCore & Overlap gradient  (SHARK) ... done (  0.0 sec)
Split-RIJ-J gradient      (SHARK) ... done (  0.1 sec)
COSX-gradient                     ... done (  1.6 sec)
XC gradient                       ... done (  0.2 sec)
CPCM gradient                     ... done (  0.2 sec)

------------------
CARTESIAN GRADIENT
------------------

   1   F   :    0.008604476   -0.008902502    0.013266040
   2   O   :   -0.006204157    0.008143260    0.005218054
   3   O   :   -0.020801720   -0.021348777   -0.001289236
   4   O   :    0.043111294    0.010553071   -0.008179066
   5   C   :    0.008233883    0.001778878   -0.017935834
   6   C   :    0.007768401    0.018121034   -0.003219976
   7   C   :   -0.035206791    0.001905165    0.010346489
   8   H   :   -0.005668038   -0.004972321    0.001704983
   9   H   :    0.003202969   -0.002603261    0.001054575
  10   H   :   -0.003040315   -0.002674547   -0.000966029

Difference to translation invariance:
           :    0.0000000000    0.0000000000   -0.0000000000

Difference to rotation invariance:
           :   -0.0001244125    0.0003676181    0.0002618602

Norm of the Cartesian gradient     ...    0.0750032035
RMS gradient                       ...    0.0136936488
MAX gradient                       ...    0.0431112935

-------
TIMINGS
-------

Total SCF gradient time     ....        2.098 sec

Densities                   ....       0.001 sec  (  0.1%)
One electron gradient       ....       0.015 sec  (  0.7%)
RI-J Coulomb gradient       ....       0.144 sec  (  6.9%)
COSX gradient               ....       1.559 sec  ( 74.3%)
XC gradient                 ....       0.183 sec  (  8.7%)
CPCM gradient               ....       0.193 sec  (  9.2%)
   A-Matrix (El+Nuc)        ....       0.029 sec  (  1.4%)
   Potential                ....       0.164 sec  (  7.8%)

Maximum memory used throughout the entire SCFGRAD-calculation: 25.7 MB
------------------------------------------------------------------------------
                         ORCA GEOMETRY RELAXATION STEP
------------------------------------------------------------------------------

Reading the OPT-File                    .... done
Getting information on internals        .... done
Copying old internal coords+grads       .... done
Making the new internal coordinates     .... (2022 redundants) done
Validating the new internal coordinates .... (2022 redundants) done
Calculating the B-matrix                .... done
Calculating the G,G- and P matrices     .... done
Transforming gradient to internals      .... done
Projecting the internal gradient        .... done
Number of atoms                         ....  10
Number of internal coordinates          ....  43
Current Energy                          ....  -441.642684251 Eh
Current gradient norm                   ....     0.075003203 Eh/bohr
Maximum allowed component of the step   ....  0.300
Current trust radius                    ....  0.300
Evaluating the initial hessian          ....  (Almloef) done
Projecting the Hessian                  .... done
Forming the augmented Hessian           .... done
Diagonalizing the augmented Hessian     .... done
Last element of RFO vector              ....  0.982771891
Lowest eigenvalues of augmented Hessian:
 -0.005718104  0.020772610  0.024557500  0.026917410  0.113671292
Length of the computed step             ....  0.188062607
The final length of the internal step   ....  0.188062607
Converting the step to Cartesian space:
 Initial RMS(Int)=    0.0286792787
Transforming coordinates:
 Iter   0:  RMS(Cart)=    0.0330532512 RMS(Int)=    0.0287204552
done
Storing new coordinates                 .... done

                                .--------------------.
          ----------------------|Geometry convergence|-------------------------
          Item                value                   Tolerance       Converged
          ---------------------------------------------------------------------
          RMS gradient        0.0089507476            0.0000300000      NO
          MAX gradient        0.0451047288            0.0001000000      NO
          RMS step            0.0286792787            0.0006000000      NO
          MAX step            0.0737899948            0.0010000000      NO
          ........................................................
          Max(Bonds)      0.0229      Max(Angles)    1.49
          Max(Dihed)        4.23      Max(Improp)    0.00
          ---------------------------------------------------------------------

The optimization has not yet converged - more geometry cycles are needed


    ---------------------------------------------------------------------------
                         Redundant Internal Coordinates
                            (Angstroem and degrees)

        Definition                    Value    dE/dq     Step     New-Value
    ----------------------------------------------------------------------------
     1. B(C   4,O   1)                1.4153 -0.001526  0.0026    1.4179   
     2. B(C   4,F   0)                1.3570 -0.017698  0.0158    1.3728   
     3. B(C   5,O   2)                1.4230 -0.015280  0.0169    1.4399   
     4. B(C   5,C   4)                1.4933 -0.010010  0.0142    1.5075   
     5. B(C   6,O   2)                1.3683  0.018424 -0.0175    1.3507   
     6. B(C   6,O   3)                1.2218  0.045105 -0.0229    1.1990   
     7. B(C   6,O   1)                1.3678  0.005230 -0.0060    1.3619   
     8. B(H   7,C   4)                1.0929  0.003836 -0.0056    1.0873   
     9. B(H   8,C   5)                1.0945  0.002379 -0.0035    1.0910   
    10. B(H   9,C   5)                1.0929  0.003855 -0.0056    1.0873   
    11. A(C   4,O   1,C   6)          106.89 -0.008042    1.49    108.38   
    12. A(C   5,O   2,C   6)          107.37 -0.003490    0.78    108.15   
    13. A(F   0,C   4,O   1)          107.68  0.001047   -0.15    107.53   
    14. A(F   0,C   4,H   7)          109.13  0.002949   -0.25    108.87   
    15. A(O   1,C   4,C   5)          103.65  0.007709   -0.75    102.90   
    16. A(O   1,C   4,H   7)          112.14  0.000682   -1.20    110.94   
    17. A(C   5,C   4,H   7)          113.97 -0.006288    1.24    115.20   
    18. A(F   0,C   4,C   5)          110.02 -0.005823    1.06    111.08   
    19. A(C   4,C   5,H   8)          112.66  0.000571   -0.62    112.04   
    20. A(O   2,C   5,H   8)          108.05 -0.001289    0.46    108.51   
    21. A(C   4,C   5,H   9)          112.91 -0.001372    0.10    113.01   
    22. A(O   2,C   5,C   4)          102.56  0.004539   -0.09    102.47   
    23. A(H   8,C   5,H   9)          110.07 -0.002614    0.36    110.43   
    24. A(O   2,C   5,H   9)          110.24  0.000657   -0.23    110.02   
    25. A(O   1,C   6,O   2)          110.66 -0.000869   -0.02    110.64   
    26. A(O   2,C   6,O   3)          124.66 -0.001329    0.22    124.88   
    27. A(O   1,C   6,O   3)          124.69  0.002199   -0.20    124.48   
    28. D(F   0,C   4,O   1,C   6)    -91.71  0.001959   -2.35    -94.06   
    29. D(C   5,C   4,O   1,C   6)     24.85 -0.000512   -1.57     23.29   
    30. D(H   7,C   4,O   1,C   6)    148.23 -0.002786   -1.22    147.01   
    31. D(H   8,C   5,C   4,H   7)    -35.82 -0.004720    4.23    -31.59   
    32. D(H   9,C   5,O   2,C   6)    144.38  0.000995   -2.08    142.29   
    33. D(O   2,C   5,C   4,F   0)     85.34 -0.000932    2.64     87.98   
    34. D(H   8,C   5,O   2,C   6)    -95.30 -0.002601   -1.49    -96.79   
    35. D(O   2,C   5,C   4,H   7)   -151.73 -0.006063    4.02   -147.71   
    36. D(H   8,C   5,C   4,F   0)   -158.75  0.000411    2.85   -155.90   
    37. D(H   8,C   5,C   4,O   1)     86.35 -0.002216    2.94     89.29   
    38. D(O   2,C   5,C   4,O   1)    -29.56 -0.003559    2.74    -26.83   
    39. D(C   4,C   5,O   2,C   6)     23.89 -0.000254   -2.04     21.85   
    40. D(O   1,C   6,O   2,C   5)     -9.32  0.000349    1.12     -8.20   
    41. D(O   3,C   6,O   1,C   4)    169.65  0.000998    0.26    169.91   
    42. D(O   2,C   6,O   1,C   4)    -10.55  0.001196    0.17    -10.38   
    43. D(O   3,C   6,O   2,C   5)    170.48  0.000556    1.03    171.51   
    ----------------------------------------------------------------------------

Geometry step timings:
Preparation and reading OPT file:      0.000 s ( 8.891 %)
Internal coordinates            :      0.000 s ( 0.982 %)
B/P matrices and projection     :      0.000 s (12.702 %)
Hessian update/contruction      :      0.001 s (30.716 %)
Making the step                 :      0.000 s (11.085 %)
Converting the step to Cartesian:      0.000 s ( 2.367 %)
Storing new data                :      0.000 s (10.739 %)
Checking convergence            :      0.000 s ( 0.058 %)
Final printing                  :      0.000 s (21.882 %)
Total time                      :      0.002 s

Time for energy+gradient        :     10.186 s
Time for complete geometry iter :     10.987 s

         *************************************************************
         *                GEOMETRY OPTIMIZATION CYCLE   2            *
         *************************************************************
---------------------------------
CARTESIAN COORDINATES (ANGSTROEM)
---------------------------------
  F     -1.775216    0.701016   -0.743537
  O      0.066820    0.891360    0.537040
  O      0.511414   -1.138460   -0.273601
  O      2.153630    0.415093   -0.211087
  C     -1.189768    0.246408    0.411984
  C     -0.810966   -1.207730    0.291885
  C      1.019720    0.083970   -0.005891
  H     -1.836166    0.488528    1.252061
  H     -0.746408   -1.695647    1.265607
  H     -1.469760   -1.765540   -0.369162

----------------------------
CARTESIAN COORDINATES (A.U.)
----------------------------
  NO LB      ZA    FRAG     MASS         X           Y           Z
   0 F     9.0000    0    18.998   -3.354671    1.324729   -1.405081
   1 O     8.0000    0    15.999    0.126272    1.684426    1.014858
   2 O     8.0000    0    15.999    0.966432   -2.151377   -0.517031
   3 O     8.0000    0    15.999    4.069771    0.784413   -0.398896
   4 C     6.0000    0    12.011   -2.248335    0.465644    0.778538
   5 C     6.0000    0    12.011   -1.532504   -2.282278    0.551584
   6 C     6.0000    0    12.011    1.926992    0.158681   -0.011132
   7 H     1.0000    0     1.008   -3.469851    0.923184    2.366052
   8 H     1.0000    0     1.008   -1.410508   -3.204308    2.391651
   9 H     1.0000    0     1.008   -2.777444   -3.336387   -0.697615

--------------------------------
INTERNAL COORDINATES (ANGSTROEM)
--------------------------------
 F      0   0   0     0.000000000000     0.00000000     0.00000000
 O      1   0   0     2.251488703689     0.00000000     0.00000000
 O      2   1   0     2.230463902388    83.07492627     0.00000000
 O      3   2   1     2.261483811488    60.62875785   134.72441129
 C      1   2   3     1.372824358750    36.90393849    72.73999906
 C      3   2   1     1.439882345793    73.61947505   306.46690195
 C      4   3   2     1.198957190605    29.33599228   359.81377681
 H      5   1   2     1.087281131470   108.84846393   120.26966656
 H      6   3   2     1.091038383587   108.52228891   258.33085559
 H      6   3   2     1.087265193136   110.02172412   137.40931419

---------------------------
INTERNAL COORDINATES (A.U.)
---------------------------
 F      0   0   0     0.000000000000     0.00000000     0.00000000
 O      1   0   0     4.254697043589     0.00000000     0.00000000
 O      2   1   0     4.214965927110    83.07492627     0.00000000
 O      3   2   1     4.273585060008    60.62875785   134.72441129
 C      1   2   3     2.594262068014    36.90393849    72.73999906
 C      3   2   1     2.720983298616    73.61947505   306.46690195
 C      4   3   2     2.265700736539    29.33599228   359.81377681
 H      5   1   2     2.054663569058   108.84846393   120.26966656
 H      6   3   2     2.061763746576   108.52228891   258.33085559
 H      6   3   2     2.054633449971   110.02172412   137.40931419



           ************************************************************
           *        Program running with 20 parallel MPI-processes    *
           *              working on a common directory               *
           ************************************************************
------------------------------------------------------------------------------
                   ___                                                        
                  /   \      - P O W E R E D   B Y -                         
                 /     \                                                     
                 |  |  |   _    _      __       _____    __    __             
                 |  |  |  | |  | |    /  \     |  _  \  |  |  /  |          
                  \  \/   | |  | |   /    \    | | | |  |  | /  /          
                 / \  \   | |__| |  /  /\  \   | |_| |  |  |/  /          
                |  |  |   |  __  | /  /__\  \  |    /   |      \           
                |  |  |   | |  | | |   __   |  |    \   |  |\   \          
                \     /   | |  | | |  |  |  |  | |\  \  |  | \   \       
                 \___/    |_|  |_| |__|  |__|  |_| \__\ |__|  \__/        
                                                                              
                      - O R C A' S   B I G   F R I E N D -                    
                                      &                                       
                       - I N T E G R A L  F E E D E R -                       
                                                                              
 v1 FN, 2020, v2 2021, v3 2022-2024                                           
------------------------------------------------------------------------------


----------------------
SHARK INTEGRAL PACKAGE
----------------------

Number of atoms                             ...     10
Number of basis functions                   ...    235
Number of shells                            ...     89
Maximum angular momentum                    ...      3
Integral batch strategy                     ... SHARK/LIBINT Hybrid
RI-J (if used) integral strategy            ... SPLIT-RIJ (Revised 2003 algorithm where possible)
Printlevel                                  ...      1
Contraction scheme used                     ... SEGMENTED contraction
Prescreening option                         ... SCHWARTZ
   Thresh                                   ... 2.500e-11
   Tcut                                     ... 2.500e-12
   Tpresel                                  ... 2.500e-12 
Coulomb Range Separation                    ... NOT USED
Exchange Range Separation                   ... NOT USED
Multipole approximations                    ... NOT USED
Finite Nucleus Model                        ... NOT USED
CABS basis                                  ... NOT available
Auxiliary Coulomb fitting basis             ... AVAILABLE
   # of basis functions in Aux-J            ...    376
   # of shells in Aux-J                     ...    120
   Maximum angular momentum in Aux-J        ...      4
Auxiliary J/K fitting basis                 ... NOT available
Auxiliary Correlation fitting basis         ... NOT available
Auxiliary 'external' fitting basis          ... NOT available

Checking pre-screening integrals            ... done (  0.0 sec) Dimension = 89
Check shell pair data                       ... done (  0.0 sec)
Shell pair information
Shell pair cut-off parameter TPreSel        ...   2.5e-12
Total number of shell pairs                 ...      4005
Shell pairs after pre-screening             ...      3776
Total number of primitive shell pairs       ...     12724
Primitive shell pairs kept                  ...      9171
          la=0 lb=0:    883 shell pairs
          la=1 lb=0:   1016 shell pairs
          la=1 lb=1:    297 shell pairs
          la=2 lb=0:    574 shell pairs
          la=2 lb=1:    329 shell pairs
          la=2 lb=2:    102 shell pairs
          la=3 lb=0:    287 shell pairs
          la=3 lb=1:    165 shell pairs
          la=3 lb=2:     96 shell pairs
          la=3 lb=3:     27 shell pairs

Calculating one electron integrals          ... done (  0.0 sec)
Calculating RI/J V-Matrix + Cholesky decomp.... done (  0.0 sec)
Calculating Nuclear repulsion               ... done (  0.0 sec) ENN=    323.730756538319 Eh

Diagonalization of the overlap matrix:
Smallest eigenvalue                        ... 4.027e-04
Time for diagonalization                   ...    0.004 sec
Threshold for overlap eigenvalues          ... 1.000e-07
Number of eigenvalues below threshold      ... 0
Time for construction of square roots      ...    0.003 sec
Total time needed                          ...    0.010 sec

-------------------
DFT GRID GENERATION
-------------------

General Integration Accuracy     IntAcc      ... 4.388
Radial Grid Type                 RadialGrid  ... OptM3 with GC (2021)
Angular Grid (max. ang.)         AngularGrid ... 4 (Lebedev-302)
Angular grid pruning method      GridPruning ... 4 (adaptive)
Weight generation scheme         WeightScheme... mBecke (2022)
Basis function cutoff            BFCut       ... 1.0000e-11
Integration weight cutoff        WCut        ... 1.0000e-14
Partially contracted basis set               ... off
Rotationally invariant grid construction     ... off
Angular grids for H and He will be reduced by one unit

Total number of grid points                  ...    52198
Total number of batches                      ...      820
Average number of points per batch           ...       63
Average number of grid points per atom       ...     5220

--------------------
COSX GRID GENERATION
--------------------

GRIDX 1
-------
General Integration Accuracy     IntAcc      ... 3.816
Radial Grid Type                 RadialGrid  ... OptM3 with GC (2021)
Angular Grid (max. ang.)         AngularGrid ... 1 (Lebedev-50)
Angular grid pruning method      GridPruning ... 4 (adaptive)
Weight generation scheme         WeightScheme... mBecke (2022)
Basis function cutoff            BFCut       ... 1.0000e-11
Integration weight cutoff        WCut        ... 1.0000e-14
Partially contracted basis set               ... on
Rotationally invariant grid construction     ... off
Angular grids for H and He will be reduced by one unit

Total number of grid points                  ...     6633
Total number of batches                      ...       58
Average number of points per batch           ...      114
Average number of grid points per atom       ...      663
UseSFitting                                  ... on

GRIDX 2
-------
General Integration Accuracy     IntAcc      ... 4.020
Radial Grid Type                 RadialGrid  ... OptM3 with GC (2021)
Angular Grid (max. ang.)         AngularGrid ... 2 (Lebedev-110)
Angular grid pruning method      GridPruning ... 4 (adaptive)
Weight generation scheme         WeightScheme... mBecke (2022)
Basis function cutoff            BFCut       ... 1.0000e-11
Integration weight cutoff        WCut        ... 1.0000e-14
Partially contracted basis set               ... on
Rotationally invariant grid construction     ... off
Angular grids for H and He will be reduced by one unit

Total number of grid points                  ...    15138
Total number of batches                      ...      123
Average number of points per batch           ...      123
Average number of grid points per atom       ...     1514
UseSFitting                                  ... on

GRIDX 3
-------
General Integration Accuracy     IntAcc      ... 4.338
Radial Grid Type                 RadialGrid  ... OptM3 with GC (2021)
Angular Grid (max. ang.)         AngularGrid ... 3 (Lebedev-194)
[...]
      dxy     :     0.015721
      f0      :     0.000276  f :     0.002102
      f+1     :     0.000367
      f-1     :     0.000193
      f+2     :     0.000154
      f-2     :     0.000271
      f+3     :     0.000424
      f-3     :     0.000418

  2 O s       :     3.774389  s :     3.774389
      pz      :     1.685127  p :     4.438392
      px      :     1.341472
      py      :     1.411794
      dz2     :     0.004637  d :     0.040635
      dxz     :     0.006244
      dyz     :     0.006685
      dx2y2   :     0.014331
      dxy     :     0.008738
      f0      :     0.000292  f :     0.002086
      f+1     :     0.000261
      f-1     :     0.000245
      f+2     :     0.000275
      f-2     :     0.000156
      f+3     :     0.000407
      f-3     :     0.000450

  3 O s       :     3.782438  s :     3.782438
      pz      :     1.478431  p :     4.531827
      px      :     1.348800
      py      :     1.704596
      dz2     :     0.003004  d :     0.029140
      dxz     :     0.009578
      dyz     :     0.001293
      dx2y2   :     0.007740
      dxy     :     0.007525
      f0      :     0.000185  f :     0.001914
      f+1     :     0.000244
      f-1     :     0.000044
      f+2     :     0.000315
      f-2     :     0.000182
      f+3     :     0.000496
      f-3     :     0.000449

  4 C s       :     3.192886  s :     3.192886
      pz      :     0.788499  p :     2.346960
      px      :     0.701087
      py      :     0.857374
      dz2     :     0.033675  d :     0.194170
      dxz     :     0.052707
      dyz     :     0.036446
      dx2y2   :     0.035492
      dxy     :     0.035851
      f0      :     0.003878  f :     0.020887
      f+1     :     0.002936
      f-1     :     0.002194
      f+2     :     0.003083
      f-2     :     0.003165
      f+3     :     0.003177
      f-3     :     0.002453

  5 C s       :     3.221516  s :     3.221516
      pz      :     1.044322  p :     2.684245
      px      :     0.681047
      py      :     0.958877
      dz2     :     0.012703  d :     0.095014
      dxz     :     0.026393
      dyz     :     0.011714
      dx2y2   :     0.021355
      dxy     :     0.022849
      f0      :     0.000853  f :     0.009683
      f+1     :     0.001573
      f-1     :     0.001052
      f+2     :     0.001591
      f-2     :     0.000744
      f+3     :     0.001848
      f-3     :     0.002022

  6 C s       :     2.998966  s :     2.998966
      pz      :     0.776664  p :     2.278372
      px      :     0.761593
      py      :     0.740115
      dz2     :     0.021939  d :     0.291380
      dxz     :     0.067426
      dyz     :     0.045907
      dx2y2   :     0.069868
      dxy     :     0.086240
      f0      :     0.002839  f :     0.032621
      f+1     :     0.003061
      f-1     :     0.002041
      f+2     :     0.004083
      f-2     :     0.003796
      f+3     :     0.008457
      f-3     :     0.008345

  7 H s       :     0.832638  s :     0.832638
      pz      :     0.010790  p :     0.020838
      px      :     0.006079
      py      :     0.003969

  8 H s       :     0.826573  s :     0.826573
      pz      :     0.012007  p :     0.021416
      px      :     0.002654
      py      :     0.006755

  9 H s       :     0.820112  s :     0.820112
      pz      :     0.008408  p :     0.021285
      px      :     0.006183
      py      :     0.006693



                     *******************************
                     * LOEWDIN POPULATION ANALYSIS *
                     *******************************

----------------------
LOEWDIN ATOMIC CHARGES
----------------------
   0 F :    0.103201
   1 O :    0.278288
   2 O :    0.266802
   3 O :    0.078753
   4 C :   -0.364144
   5 C :   -0.207593
   6 C :   -0.601756
   7 H :    0.148098
   8 H :    0.148863
   9 H :    0.149487

-------------------------------
LOEWDIN REDUCED ORBITAL CHARGES
-------------------------------
  0 F s       :     3.626437  s :     3.626437
      pz      :     1.658021  p :     5.241415
      px      :     1.764734
      py      :     1.818660
      dz2     :     0.008561  d :     0.027651
      dxz     :     0.008331
      dyz     :     0.005578
      dx2y2   :     0.002213
      dxy     :     0.002967
      f0      :     0.000279  f :     0.001296
      f+1     :     0.000326
      f-1     :     0.000161
      f+2     :     0.000189
      f-2     :     0.000247
      f+3     :     0.000052
      f-3     :     0.000041

  1 O s       :     3.268197  s :     3.268197
      pz      :     1.558906  p :     4.342502
      px      :     1.256727
      py      :     1.526868
      dz2     :     0.011190  d :     0.103595
      dxz     :     0.018109
      dyz     :     0.008480
      dx2y2   :     0.023935
      dxy     :     0.041881
      f0      :     0.000603  f :     0.007418
      f+1     :     0.000819
      f-1     :     0.000387
      f+2     :     0.000520
      f-2     :     0.001233
      f+3     :     0.002223
      f-3     :     0.001633

  2 O s       :     3.268702  s :     3.268702
      pz      :     1.569621  p :     4.352160
      px      :     1.341134
      py      :     1.441405
      dz2     :     0.012100  d :     0.104910
      dxz     :     0.016321
      dyz     :     0.011535
      dx2y2   :     0.037566
      dxy     :     0.027389
      f0      :     0.000509  f :     0.007425
      f+1     :     0.000752
      f-1     :     0.000634
      f+2     :     0.001167
      f-2     :     0.000537
      f+3     :     0.001617
      f-3     :     0.002211

  3 O s       :     3.399530  s :     3.399530
      pz      :     1.384538  p :     4.450474
      px      :     1.483607
      py      :     1.582329
      dz2     :     0.008321  d :     0.064742
      dxz     :     0.014988
      dyz     :     0.002033
      dx2y2   :     0.021863
      dxy     :     0.017538
      f0      :     0.000568  f :     0.006501
      f+1     :     0.001022
      f-1     :     0.000156
      f+2     :     0.000799
      f-2     :     0.000492
      f+3     :     0.001686
      f-3     :     0.001777

  4 C s       :     2.792984  s :     2.792984
      pz      :     0.870400  p :     2.665609
      px      :     0.815155
      py      :     0.980054
      dz2     :     0.153051  d :     0.766434
      dxz     :     0.196376
      dyz     :     0.115897
      dx2y2   :     0.150132
      dxy     :     0.150978
      f0      :     0.020754  f :     0.139116
      f+1     :     0.020564
      f-1     :     0.016120
      f+2     :     0.018595
      f-2     :     0.023017
      f+3     :     0.021355
      f-3     :     0.018712

  5 C s       :     2.816970  s :     2.816970
      pz      :     1.051560  p :     2.881386
      px      :     0.789906
      py      :     1.039920
      dz2     :     0.065252  d :     0.442582
      dxz     :     0.099306
      dyz     :     0.071042
      dx2y2   :     0.112872
      dxy     :     0.094110
      f0      :     0.006050  f :     0.066656
      f+1     :     0.010123
      f-1     :     0.004565
      f+2     :     0.011007
      f-2     :     0.005444
      f+3     :     0.014202
      f-3     :     0.015266

  6 C s       :     2.738194  s :     2.738194
      pz      :     0.778865  p :     2.590293
      px      :     0.940111
      py      :     0.871317
      dz2     :     0.100134  d :     1.078595
      dxz     :     0.197780
      dyz     :     0.146873
      dx2y2   :     0.293690
      dxy     :     0.340118
      f0      :     0.012422  f :     0.194674
      f+1     :     0.016169
      f-1     :     0.013109
      f+2     :     0.027395
      f-2     :     0.023477
      f+3     :     0.051428
      f-3     :     0.050676

  7 H s       :     0.792257  s :     0.792257
      pz      :     0.031112  p :     0.059645
      px      :     0.016694
      py      :     0.011838

  8 H s       :     0.789850  s :     0.789850
      pz      :     0.034724  p :     0.061287
      px      :     0.008276
      py      :     0.018287

  9 H s       :     0.789078  s :     0.789078
      pz      :     0.025840  p :     0.061435
      px      :     0.017408
      py      :     0.018187



                      *****************************
                      * MAYER POPULATION ANALYSIS *
                      *****************************

  NA   - Mulliken gross atomic population
  ZA   - Total nuclear charge
  QA   - Mulliken gross atomic charge
  VA   - Mayer's total valence
  BVA  - Mayer's bonded valence
  FA   - Mayer's free valence

  ATOM       NA         ZA         QA         VA         BVA        FA
  0 F      9.2389     9.0000    -0.2389     1.0192     1.0192    -0.0000
  1 O      8.2507     8.0000    -0.2507     2.1206     2.1206     0.0000
  2 O      8.2555     8.0000    -0.2555     2.1363     2.1363    -0.0000
  3 O      8.3453     8.0000    -0.3453     2.1642     2.1642    -0.0000
  4 C      5.7549     6.0000     0.2451     4.0334     4.0334     0.0000
  5 C      6.0105     6.0000    -0.0105     3.7934     3.7934     0.0000
  6 C      5.6013     6.0000     0.3987     4.5022     4.5022    -0.0000
  7 H      0.8535     1.0000     0.1465     0.9578     0.9578     0.0000
  8 H      0.8480     1.0000     0.1520     0.9608     0.9608    -0.0000
  9 H      0.8414     1.0000     0.1586     0.9664     0.9664     0.0000

  Mayer bond orders larger than 0.100000
B(  0-F ,  4-C ) :   1.0175 B(  1-O ,  4-C ) :   1.0010 B(  1-O ,  6-C ) :   1.1136 
B(  2-O ,  5-C ) :   0.8994 B(  2-O ,  6-C ) :   1.2046 B(  3-O ,  6-C ) :   2.1019 
B(  4-C ,  5-C ) :   0.9920 B(  4-C ,  7-H ) :   0.9660 B(  5-C ,  8-H ) :   0.9430 
B(  5-C ,  9-H ) :   0.9486 

-------
TIMINGS
-------

Total SCF time: 0 days 0 hours 0 min 2 sec 

Total time                  ....       2.208 sec
Sum of individual times     ....       2.168 sec  ( 98.2%)

SCF preparation             ....       0.626 sec  ( 28.4%)
Fock matrix formation       ....       1.400 sec  ( 63.4%)
  Startup                   ....       0.012 sec  (  0.9% of F)
  Split-RI-J                ....       0.075 sec  (  5.4% of F)
  Chain of spheres X        ....       1.046 sec  ( 74.7% of F)
  XC integration            ....       0.153 sec  ( 11.0% of F)
    Basis function eval.    ....       0.031 sec  ( 20.0% of XC)
    Density eval.           ....       0.032 sec  ( 21.0% of XC)
    XC-Functional eval.     ....       0.005 sec  (  3.1% of XC)
    XC-Potential eval.      ....       0.052 sec  ( 34.1% of XC)
  CPCM terms                ....       0.092 sec  (  6.6% of F)
Diagonalization             ....       0.000 sec  (  0.0%)
Density matrix formation    ....       0.014 sec  (  0.6%)
Total Energy calculation    ....       0.015 sec  (  0.7%)
Population analysis         ....       0.033 sec  (  1.5%)
Orbital Transformation      ....       0.016 sec  (  0.7%)
Orbital Orthonormalization  ....       0.000 sec  (  0.0%)
DIIS solution               ....       0.023 sec  (  1.0%)
SOSCF solution              ....       0.041 sec  (  1.9%)
Finished LeanSCF after   2.3 sec

Maximum memory used throughout the entire LEANSCF-calculation: 21.6 MB

-------------------------   --------------------
FINAL SINGLE POINT ENERGY      -441.647740781225
-------------------------   --------------------

                                *** OPTIMIZATION RUN DONE ***



           ************************************************************
           *        Program running with 20 parallel MPI-processes    *
           *              working on a common directory               *
           ************************************************************

------------------------------------------------------------------------------
                              ORCA PROPERTY CALCULATIONS
------------------------------------------------------------------------------

GBWName                                 ... FEC.gbw
Number of atoms                         ...     10
Number of basis functions               ...    235
Max core memory                         ...   5000 MB

Electric properties:
Dipole moment                           ... YES
Quadrupole moment                       ...  NO
Static polarizability (Dipole/Dipole)   ...  NO
Static polarizability (Dipole/Quad.)    ...  NO
Static polarizability (Quad./Quad.)     ...  NO
Static polarizability (Velocity)        ...  NO

Atomic electric properties:
Dipole moment                           ...  NO
Quadrupole moment                       ...  NO
Static polarizability                   ...  NO

Choice of electric origin               ... Center of mass
Position of electric origin             ...    -0.123723     0.035886    -0.030088

General magnetic properties:
Magnetizability                         ...  NO

EPR properties:
g-Tensor (aka g-matrix)                 ...  NO
Zero-Field splitting spin-orbit         ...  NO
Zero-field splitting spin-spin          ...  NO
Hyperfine couplings                     ...  NO (   0 nuclei)
Quadrupole couplings                    ...  NO (   0 nuclei)
Contact density                         ...  NO (   0 nuclei)

NMR properties:
Chemical shifts                         ...  NO (   0 nuclei)
Spin-rotation constants                 ...  NO (   0 nuclei)
Spin-spin couplings                     ...  NO (   0 nuclei,    0 pairs)

Choice of magnetic origin               ... GIAO
Position of magnetic origin             ...     0.000000     0.000000     0.000000

Properties with geometric perturbations:
SCF Hessian                             ...  NO
IR spectrum                             ...  NO
VCD spectrum                            ...  NO
X-ray spectroscopy properties:
SCF XES/XAS/RIXS spectra                ...  NO


-------------
DIPOLE MOMENT
-------------

Method             : SCF
Type of density    : Electron Density
Multiplicity       :   1
Irrep              :   0
Energy             :  -441.6477407812251386 Eh
Relativity type    : 
Basis              : AO
                                X                 Y                 Z
Electronic contribution:     -0.186876131       2.275956910      -1.539994550
Nuclear contribution   :     -1.843180039      -3.424609634       2.632310656
                        -----------------------------------------
Total Dipole Moment    :     -2.030056170      -1.148652724       1.092316106
                        -----------------------------------------
Magnitude (a.u.)       :      2.575594224
Magnitude (Debye)      :      6.546640248



--------------------
Rotational spectrum 
--------------------
 
Rotational constants in cm-1:             0.185598             0.079980             0.064018 
Rotational constants in MHz :          5564.082409          2397.727904          1919.208110 

Dipole components along the rotational axes: 
x,y,z [a.u.] :     1.922833    -1.366659     1.033752 
x,y,z [Debye]:     4.887453    -3.473771     2.627589 

 

Dipole moment calculation done in   0.0 sec 

Maximum memory used throughout the entire PROP-calculation: 11.3 MB

--------------------------------
SUGGESTED CITATIONS FOR THIS RUN
--------------------------------

Below you find a list of papers that are relevant to this ORCA run
We neither can nor want to force you to cite these papers, but we appreciate if you do
You receive ORCA, which is the product of decades of hard work by many enthusiastic individuals, for free
The only thing we kindly ask in return is that you cite our papers,
We deeply appreciate it, if you show your appreciation for ORCA by not just citing the generic ORCA reference.

Please note that relegating all ORCA citations to the supporting information does *not* help us.
SI sections are not indexed - citations you put there will not count into any citation statistics
But we need these citations in order to attract the funding resources that allow us to do what we are doing

Therefore, if you are a happy ORCA user, please consider citing a few of the papers listed below in the main body of your paper

In addition to the list printed below, the program has created the file FEC.bibtex that contains the list in bibtex format
You can import this file easily into all common literature databanks and citation aid programs


List of essential papers. We consider these as the minimum necessary citations

  1. Neese,F.
     Software update: the ORCA program system, version 5.0
     WIRES Comput. Molec. Sci., 2022 12(1)e1606
     doi.org/10.1002/wcms.1606

List of papers to cite with high priority. The work reported in these papers was absolutely
necessary for this run to complete.
Our perspective: the developers of density functionals and basis sets usually get cited in chemistry papers
Good! But without the algorithms to do something with them, the functionals or basis sets would not do anything.
Hence, in our opinion, the algorithm design and method developments papers are equally worthy of getting cited

  1. Neese,F.
     An improvement of the resolution of the identity approximation for the formation of the Coulomb matrix
     J. Comp. Chem., 2003 24(14)1740-1747
     doi.org/10.1002/jcc.10318
  2. Neese,F.; Wennmohs,F.; Hansen,A.; Becker,U.
     Efficient, approximate and parallel Hartree-Fock and hybrid DFT calculations. A 'chain-of-spheres' algorithm for the Hartree-Fock exchange
     Chem. Phys., 2009 356(1-3)98-109
     doi.org/10.1016/j.chemphys.2008.10.036
  3. Garcia-Rates,M.; Neese,F.
     Effect of the Solute Cavity on the Solvation Energy and its Derivatives within the Framework of the Gaussian Charge Scheme
     J. Comput. Chem., 2020 41 922-939
     doi.org/10.1002/jcc.26139
  4. Helmich-Paris,B.; de Souza,B.; Neese,F.; Izsák,R.
     An improved chain of spheres for exchange algorithm
     J. Chem. Phys., 2021 155 104109
     doi.org/doi: 10.1063/5.0058766.
  5. Neese,F.
     The SHARK Integral Generation and Digestion System
     J. Comp. Chem., 2022  1-16
     doi.org/10.1002/jcc.26942

List of suggested additional citations. These are papers that are important in the 'surrounding' of 
of this run, or papers that preceded the highly important papers. If you like your results we are grateful for a citation.

  1. Izsak,R.; Neese,F.
     An overlap fitted chain of spheres exchange method
     J. Chem. Phys., 2011 135 144105
     doi.org/10.1063/1.3646921
  2. Izsak,R.; Hansen,A.; Neese,F.
     The resolution of identity and chain of spheres approximations for the LPNO-CCSD singles Fock term
     Molec. Phys., 2012 110 2413-2417
     doi.org/10.1080/00268976.2012.687466
  3. Neese,F.
     The ORCA program system
     WIRES Comput. Molec. Sci., 2012 2(1)73-78
     doi.org/10.1002/wcms.81
  4. Izsak,R.; Neese,F.; Klopper,W.
     Robust fitting techniques in the chain of spheres approximation to the Fock exchange: The role of the complementary space
     J. Chem. Phys., 2013 139 
     doi.org/10.1063/1.4819264
  5. Neese,F.
     Software update: the ORCA program system, version 4.0
     WIRES Comput. Molec. Sci., 2018 8(1)1-6
     doi.org/10.1002/wcms.1327
  6. Neese,F.; Wennmohs,F.; Becker,U.; Riplinger,C.
     The ORCA quantum chemistry program package
     J. Chem. Phys., 2020 152 Art. No. L224108
     doi.org/10.1063/5.0004608

List of optional additional citations

  1. Neese,F.
     Approximate second-order SCF convergence for spin unrestricted wavefunctions
     Chem. Phys. Lett., 2000 325(1-3)93-98
     doi.org/10.1016/s0009-2614(00)00662-x

Timings for individual modules:

Sum of individual times          ...       95.287 sec (=   1.588 min)
Startup calculation              ...       13.638 sec (=   0.227 min)  14.3 %
SCF iterations                   ...       51.887 sec (=   0.865 min)  54.5 %
Property calculations            ...        0.810 sec (=   0.014 min)   0.9 %
SCF Gradient evaluation          ...       28.921 sec (=   0.482 min)  30.4 %
Geometry relaxation              ...        0.031 sec (=   0.001 min)   0.0 %
                             ****ORCA TERMINATED NORMALLY****
TOTAL RUN TIME: 0 days 0 hours 1 minutes 43 seconds 692 msec
