[Molden Format]
[Title]
 Molden file created by orca_2mkl for BaseName=FEC

[Atoms] AU
F    1   9         -3.5744071824         1.2838905583        -1.3088452098 
O    2   8          0.1050010226         1.7330943261         0.8066662328 
O    3   8          1.0675526376        -2.2011149603        -0.2906751522 
O    4   8          4.0873972141         0.7953231431        -0.4032513127 
C    5   6         -2.2411847946         0.4739915503         0.7889266916 
C    6   6         -1.5293943131        -2.3018620433         0.5481153077 
C    7   6          1.9616220753         0.1447263670        -0.0138010513 
H    8   1         -3.3200208659         0.9935732485         2.4554986952 
H    9   1         -1.6050738189        -3.2789028311         2.3563726676 
H   10   1         -2.6553385050        -3.2759929637        -0.8660801325 
[GTO]
  1 0
s   6 1.0 
    35479.1004410000         1.0351654302
     5318.4728983000         1.9331170875
     1210.4810975000         3.3081679067
      342.8551814000         5.1904360265
      112.0194318100         7.1453715076
       40.7147402480         7.7853597648
s   2 1.0 
       16.0396781110         3.6156464853
        6.5038186740         1.1649992517
s   1 1.0 
        1.5440477509         0.9872011158
s   1 1.0 
        0.6122345286         0.4932856214
s   1 1.0 
        0.2402797970         0.2445952588
p   4 1.0 
       80.2339004830         4.2174077507
       18.5940107430         4.7174264054
        5.6867902653         4.0849101385
        1.9511006294         2.2998974220
p   1 1.0 
        0.6697021130         0.8635593174
p   1 1.0 
        0.2165130041         0.2105208284
d   1 1.0 
        3.1070000000        20.7284714039
d   1 1.0 
        0.8550000000         2.1672588463
f   1 1.0 
        1.9170000000        24.6547062912

  2 0
s   6 1.0 
    27032.3826310000         0.8598581479
     4052.3871392000         1.6055305368
      922.3272271000         2.7458778516
      261.2407098900         4.2987674426
       85.3546413510         5.8797663284
       31.0350352450         6.3163983216
s   2 1.0 
       12.2608607280         2.9812147522
        4.9987076005         0.9419559635
s   1 1.0 
        1.1703108158         0.8019291610
s   1 1.0 
        0.4647474099         0.4011648062
s   1 1.0 
        0.1850453636         0.2010799406
p   4 1.0 
       63.2749548010         3.0572017144
       14.6270493790         3.3844839414
        4.4501223456         2.9474262132
        1.5275799647         1.7118271494
p   1 1.0 
        0.5293511794         0.6436057926
p   1 1.0 
        0.1747842127         0.1610897254
d   1 1.0 
        2.3140000000        12.3767310624
d   1 1.0 
        0.6450000000         1.3234257612
f   1 1.0 
        1.4280000000        12.7097950062

  3 0
s   6 1.0 
    27032.3826310000         0.8598581479
     4052.3871392000         1.6055305368
      922.3272271000         2.7458778516
      261.2407098900         4.2987674426
       85.3546413510         5.8797663284
       31.0350352450         6.3163983216
s   2 1.0 
       12.2608607280         2.9812147522
        4.9987076005         0.9419559635
s   1 1.0 
        1.1703108158         0.8019291610
s   1 1.0 
        0.4647474099         0.4011648062
s   1 1.0 
        0.1850453636         0.2010799406
p   4 1.0 
       63.2749548010         3.0572017144
       14.6270493790         3.3844839414
        4.4501223456         2.9474262132
        1.5275799647         1.7118271494
p   1 1.0 
        0.5293511794         0.6436057926
p   1 1.0 
        0.1747842127         0.1610897254
d   1 1.0 
        2.3140000000        12.3767310624
d   1 1.0 
        0.6450000000         1.3234257612
f   1 1.0 
        1.4280000000        12.7097950062

  4 0
s   6 1.0 
    27032.3826310000         0.8598581479
     4052.3871392000         1.6055305368
      922.3272271000         2.7458778516
      261.2407098900         4.2987674426
       85.3546413510         5.8797663284
       31.0350352450         6.3163983216
s   2 1.0 
       12.2608607280         2.9812147522
        4.9987076005         0.9419559635
s   1 1.0 
        1.1703108158         0.8019291610
s   1 1.0 
        0.4647474099         0.4011648062
s   1 1.0 
        0.1850453636         0.2010799406
p   4 1.0 
       63.2749548010         3.0572017144
       14.6270493790         3.3844839414
        4.4501223456         2.9474262132
        1.5275799647         1.7118271494
p   1 1.0 
        0.5293511794         0.6436057926
p   1 1.0 
        0.1747842127         0.1610897254
d   1 1.0 
        2.3140000000        12.3767310624
d   1 1.0 
        0.6450000000         1.3234257612
f   1 1.0 
        1.4280000000        12.7097950062

  5 0
s   6 1.0 
    13575.3496820000         0.5435905310
     2035.2333680000         1.0145543947
      463.2256235900         1.7315731970
      131.2001959800         2.6910376290
       42.8530158910         3.6044547126
       15.5841857660         3.7025556986
s   2 1.0 
        6.2067138508         1.8383540830
        2.5764896527         0.5447575605
s   1 1.0 
        0.5769633942         0.4718145038
s   1 1.0 
        0.2297283136         0.2364944676
s   1 1.0 
        0.0951644400         0.1221141848
p   4 1.0 
       34.6972322440         1.3596651507
        7.9582622826         1.4512589486
        2.3780826883         1.2709231419
        0.8143320818         0.8025721189
p   1 1.0 
        0.2888754725         0.3018758868
p   1 1.0 
        0.1005682367         0.0807265016
d   1 1.0 
        1.0970000000         3.3522135855
d   1 1.0 
        0.3180000000         0.3838994974
f   1 1.0 
        0.7610000000         3.0840084332

  6 0
s   6 1.0 
    13575.3496820000         0.5435905310
     2035.2333680000         1.0145543947
      463.2256235900         1.7315731970
      131.2001959800         2.6910376290
       42.8530158910         3.6044547126
       15.5841857660         3.7025556986
s   2 1.0 
        6.2067138508         1.8383540830
        2.5764896527         0.5447575605
s   1 1.0 
        0.5769633942         0.4718145038
s   1 1.0 
        0.2297283136         0.2364944676
s   1 1.0 
        0.0951644400         0.1221141848
p   4 1.0 
       34.6972322440         1.3596651507
        7.9582622826         1.4512589486
        2.3780826883         1.2709231419
        0.8143320818         0.8025721189
p   1 1.0 
        0.2888754725         0.3018758868
p   1 1.0 
        0.1005682367         0.0807265016
d   1 1.0 
        1.0970000000         3.3522135855
d   1 1.0 
        0.3180000000         0.3838994974
f   1 1.0 
        0.7610000000         3.0840084332

  7 0
s   6 1.0 
    13575.3496820000         0.5435905310
     2035.2333680000         1.0145543947
      463.2256235900         1.7315731970
      131.2001959800         2.6910376290
       42.8530158910         3.6044547126
       15.5841857660         3.7025556986
s   2 1.0 
        6.2067138508         1.8383540830
        2.5764896527         0.5447575605
s   1 1.0 
        0.5769633942         0.4718145038
s   1 1.0 
        0.2297283136         0.2364944676
s   1 1.0 
        0.0951644400         0.1221141848
p   4 1.0 
       34.6972322440         1.3596651507
        7.9582622826         1.4512589486
        2.3780826883         1.2709231419
        0.8143320818         0.8025721189
p   1 1.0 
        0.2888754725         0.3018758868
p   1 1.0 
        0.1005682367         0.0807265016
d   1 1.0 
        1.0970000000         3.3522135855
d   1 1.0 
        0.3180000000         0.3838994974
f   1 1.0 
        0.7610000000         3.0840084332

  8 0
s   3 1.0 
       34.0613410000         0.2556299169
        5.1235746000         0.4613599649
        1.1646626000         0.6811214941
s   1 1.0 
        0.3272304100         0.3083545312
s   1 1.0 
        0.1030724100         0.1296483265
p   1 1.0 
        0.8000000000         1.0784563492

  9 0
s   3 1.0 
       34.0613410000         0.2556299169
        5.1235746000         0.4613599649
        1.1646626000         0.6811214941
s   1 1.0 
        0.3272304100         0.3083545312
s   1 1.0 
        0.1030724100         0.1296483265
p   1 1.0 
        0.8000000000         1.0784563492

 10 0
s   3 1.0 
       34.0613410000         0.2556299169
        5.1235746000         0.4613599649
        1.1646626000         0.6811214941
s   1 1.0 
        0.3272304100         0.3083545312
s   1 1.0 
        0.1030724100         0.1296483265
p   1 1.0 
        0.8000000000         1.0784563492

[5D]
[7F]
[9G]
[MO]
 Sym=     1a
 Ene= -2.46949631350788E+01
 Spin= Alpha
 Occup= 2.000000
  1       0.425342952173
  2       0.648890853743
  3       0.034356114518
  4      -0.022608639731
  5       0.010709713479
  6       0.000731489703
  7      -0.000443844255
  8       0.001008993470
  9      -0.001833589721
 10       0.001104651354
 11      -0.002294136904
 12       0.001312403161
 13      -0.000603948369
 14       0.000346672359
 15       0.000090779053
 16       0.000139807306
 17      -0.000090919697
 18       0.000015811510
 19      -0.000046592645
 20      -0.000383986534
 21      -0.000625482892
 22       0.000403923686
 23      -0.000086783196
 24       0.000232266437
 25       0.000005123793
 26      -0.000095194387
 27       0.000060210811
 28      -0.000036053445
 29       0.000073236611
 30      -0.000003594058
 31      -0.000023192455
 32       0.000002072440
 33      -0.000011890200
 34       0.000094682137
 35       0.000011877125
 36       0.000223255214
 37       0.000032226638
 38       0.000012869205
 39      -0.000051802173
 40      -0.000662616747
 41       0.000036643302
 42       0.000193918711
 43      -0.001703579480
 44       0.000697565894
 45       0.000090685601
 46       0.000009673972
 47       0.000033347530
 48       0.000001449282
 49       0.000016667964
 50      -0.000028131247
 51      -0.000014950316
 52       0.000039796911
 53      -0.000027417173
 54      -0.000031454256
 55       0.000253044750
 56      -0.000002637490
 57       0.000037352390
 58      -0.000003607339
 59       0.000017962799
 60      -0.000065133646
 61      -0.000024319588
 62      -0.000011982186
 63       0.000002961794
 64      -0.000018159749
 65       0.000234168913
 66      -0.000732617420
 67      -0.001570602692
 68      -0.000061357109
 69       0.000005817594
 70       0.000030818361
 71       0.000547128082
 72      -0.000109961150
 73      -0.000186759892
 74       0.000432247189
 75      -0.000019306361
 76       0.000325329918
 77      -0.000004861392
 78      -0.000007049421
 79       0.000005596279
 80       0.000013239978
 81       0.000004446603
 82       0.000094316808
 83       0.000068355376
 84      -0.000015189358
 85      -0.000121618275
 86       0.000023126353
 87       0.000005328164
 88      -0.000017032223
 89       0.000003149677
 90      -0.000006809836
 91       0.000021639272
 92      -0.000009441939
 93      -0.000000407639
 94      -0.000000450052
 95       0.000002840916
 96      -0.000060297553
 97       0.000161250095
 98       0.000433977300
 99       0.000052388445
100      -0.000018893551
101       0.000027615179
102      -0.000311529859
103       0.000075050358
104      -0.000112114400
105       0.000450726070
106      -0.000319494426
107       0.000168349321
108      -0.000002147905
109      -0.000006617181
110       0.000001035133
111       0.000006470188
112      -0.000004585206
113      -0.000024803882
114       0.000013495642
115      -0.000010478219
116       0.000021166214
117       0.000051815172
118      -0.000008217354
119       0.000010238016
120       0.000007136705
121       0.000004928351
122       0.000011192358
123      -0.000004819507
124       0.000020612460
125       0.000040377424
126      -0.000177133104
127      -0.000628522947
128       0.003037382389
129      -0.015608258565
130       0.000215808165
131      -0.000071876303
132       0.000130696808
133      -0.002284129755
134       0.001348810301
135      -0.002559902953
136      -0.003618298811
137       0.002594094456
138       0.005044193578
139       0.000160711727
140       0.000288567960
141      -0.000199981041
142       0.000102397700
143      -0.000228948698
144       0.001833168905
145       0.001961056359
146      -0.001083864173
147       0.000286954190
148      -0.000222850874
149      -0.000142299985
150      -0.000561790986
151       0.000362929996
152      -0.000270293593
153       0.000464386631
154      -0.000055789023
155      -0.000019129489
156       0.000003857435
157      -0.000014047368
158      -0.000253371885
159       0.002370327502
160       0.007435529746
161      -0.000178491840
162      -0.000036760201
163      -0.000027209157
164       0.000973119238
165       0.001715563134
166      -0.000016450558
167      -0.000796694859
168       0.002356984875
169      -0.001386029793
170      -0.000004957686
171       0.000066109946
172      -0.000068709278
173      -0.000008700997
174      -0.000057979079
175      -0.000588033519
176      -0.000853832002
177      -0.000036286852
178      -0.000006005028
179       0.000136619454
180       0.000018924271
181       0.000040786301
182      -0.000005875137
183      -0.000007613756
184      -0.000039314663
185      -0.000018799179
186      -0.000020408827
187      -0.000007473727
188       0.000035749069
189      -0.000618632272
190       0.001533986648
191       0.004644585978
192       0.000124019669
193      -0.000082356216
194      -0.000007156429
195      -0.001449393074
196       0.000680726625
197       0.000392595920
198      -0.003142046810
199       0.000606353424
200       0.000037865558
201       0.000039143107
202      -0.000035906390
203      -0.000008927810
204      -0.000076915875
205      -0.000038361011
206      -0.000388930412
207      -0.000017586151
208       0.000323488243
209       0.000322471059
210      -0.000398111398
211      -0.000039819757
212       0.000068662818
213      -0.000010927926
214       0.000006692981
215      -0.000063878073
216      -0.000002229627
217      -0.000062589290
218       0.000065259013
219       0.000499480778
220      -0.001123052771
221      -0.000142517221
222       0.000056730664
223      -0.000081497945
224       0.000052000748
225       0.000159731506
226       0.000248622417
227       0.000144386084
228      -0.000002372691
229      -0.000000909326
230       0.000148951756
231       0.000556857828
232      -0.000905163367
233       0.000033916476
234       0.000238320717
235       0.000043523974
 Sym=     1a
 Ene= -1.92060532600104E+01
 Spin= Alpha
 Occup= 2.000000
  1       0.000001453476
  2      -0.000012161065
  3       0.000089309731
  4      -0.000069248326
  5       0.001414870394
  6       0.000000793424
  7       0.000064860587
  8      -0.000025211585
  9       0.000108461289
 10      -0.000253598985
 11       0.000161846319
 12       0.000045871066
 13      -0.000061607308
 14      -0.000013957326
 15      -0.000011960091
 16       0.000024169200
 17      -0.000001722327
 18       0.000040173635
 19       0.000056744401
 20       0.000012829478
 21      -0.000086179410
 22       0.000019257881
 23      -0.000139425021
 24      -0.000208190079
 25       0.000011015639
 26       0.000000644591
 27       0.000028456625
 28      -0.000009526821
 29      -0.000014295172
 30       0.000020833022
 31       0.000018870417
 32       0.435109206653
 33       0.639384891423
 34       0.037726505598
 35      -0.032350996843
 36       0.005941883326
 37      -0.000278911329
 38      -0.002126479464
 39      -0.000605619180
 40       0.000773895480
 41       0.006009406133
 42       0.001706823281
 43      -0.000077298793
 44       0.000585736450
 45       0.000330967739
 46      -0.000242949881
 47      -0.000104034778
 48       0.000089922262
 49       0.000175543561
 50      -0.000012614377
 51       0.001481425144
 52       0.000601758348
 53      -0.000546473704
 54      -0.000996240296
 55      -0.000032676377
 56      -0.000088928744
 57      -0.000098568660
 58      -0.000123548001
 59       0.000033118956
 60      -0.000113800458
 61      -0.000073749908
 62      -0.000340077217
 63      -0.001023925316
 64      -0.001449085907
 65      -0.000752242319
 66       0.003106417965
 67      -0.000112058669
 68       0.000042616696
 69       0.000007474009
 70      -0.000043508270
 71      -0.000476796520
 72       0.000651802845
 73       0.000417924733
 74      -0.001177971019
 75      -0.000058444761
 76       0.000226523201
 77      -0.000049962277
 78       0.000008154826
 79       0.000018140824
 80      -0.000026510396
 81      -0.000004139164
 82       0.000065824373
 83      -0.000126458949
 84      -0.000049995478
 85       0.000141420785
 86       0.000076871047
 87       0.000011857902
 88       0.000000905446
 89       0.000042372070
 90       0.000073102371
 91       0.000019106552
 92       0.000090748598
 93      -0.000016566351
 94      -0.000016584008
 95      -0.000022487641
 96      -0.000192390975
 97       0.001957260204
 98      -0.000329803240
 99      -0.000044623035
100      -0.000021760086
101       0.000013141270
102      -0.000640257725
103       0.000090520196
104       0.000147144229
105      -0.000151519249
106       0.000575681349
107       0.000317630993
108      -0.000083130109
109      -0.000026941205
110       0.000035964470
111      -0.000009168831
112       0.000014437310
113       0.000235009822
114       0.000054747091
115      -0.000128302562
116       0.000156521319
117      -0.000033633026
118       0.000040719612
119      -0.000031117633
120       0.000002878381
121      -0.000031007704
122       0.000025776194
123      -0.000001596809
124       0.000032322062
125       0.000029551113
126      -0.000150433073
127      -0.001788117082
128       0.007690947254
129      -0.008399362549
130      -0.000276393918
131      -0.000039283259
132      -0.000065385850
133       0.006563673623
134       0.002609711008
135       0.000165116534
136      -0.000856719462
137       0.000843947720
138      -0.000422924817
139      -0.000235881164
140       0.000006888350
141       0.000026442550
142       0.000215050965
143       0.000444428158
144      -0.002339825054
145      -0.000006255261
146      -0.000235852620
147       0.002088974845
148       0.002092229691
149      -0.000002912627
150      -0.000471238667
151      -0.000243880701
152      -0.000037737066
153       0.000012172792
154      -0.000080241161
155      -0.000541171249
156       0.000008316449
157      -0.000043548652
158       0.000880619329
159      -0.001833600448
160       0.003848117237
161       0.000316112009
162       0.000150783608
163      -0.000037759824
164      -0.002197161347
165      -0.000759835013
166       0.000473597707
167      -0.000116135648
168       0.001658080014
169       0.000897072089
170      -0.000037798155
171       0.000026945363
172       0.000025494791
173       0.000039485847
174       0.000068348636
175       0.001050373443
176       0.000357183384
177      -0.000442662483
178      -0.000524554340
179      -0.000859871880
180       0.000006652077
181       0.000077598497
182       0.000048150506
183       0.000121335312
184       0.000027763849
185      -0.000068982447
186      -0.000017728540
187       0.000031760282
188      -0.000176684411
189      -0.000754790767
190       0.004904647149
191      -0.001026612566
192      -0.000035227535
193       0.000017213309
194      -0.000015046953
195      -0.005274874930
196       0.004083763824
197       0.002324697090
198       0.001171683961
199      -0.001436290232
200      -0.000903527960
201      -0.000227659261
202      -0.000211998456
203       0.000207152285
204       0.000078226821
205      -0.000381776064
206      -0.000457792228
207      -0.001371345566
208       0.001150489387
209       0.000327882946
210      -0.003830585215
211      -0.000451612408
212       0.000248089465
213      -0.000228929079
214       0.000075676056
215      -0.000307115484
216      -0.000001553602
217      -0.000079555510
218       0.000053495420
219       0.001033807788
220       0.001343278877
221       0.000033604105
222      -0.000082510485
223       0.000006350173
224      -0.000097744315
225      -0.000969028451
226      -0.000139394404
227      -0.000040689928
228      -0.000053612111
229       0.000094420291
230      -0.000011223992
231      -0.000176623220
232       0.000484309623
233      -0.000105891748
234      -0.000124309374
235       0.000085164184
 Sym=     1a
 Ene= -1.92023204923953E+01
 Spin= Alpha
 Occup= 2.000000
  1       0.000001422111
  2      -0.000016114494
  3       0.000166838107
  4      -0.000642091156
  5       0.000002061450
  6       0.000012299684
  7      -0.000016028648
  8       0.000010812683
  9      -0.000152389030
 10       0.000137698925
 11      -0.000133253170
 12       0.000152101483
 13      -0.000339455006
 14       0.000051468512
 15       0.000004386571
 16       0.000001162277
 17       0.000005121672
 18       0.000002941965
 19       0.000027211695
 20      -0.000003530284
 21      -0.000015647039
 22      -0.000015556998
 23      -0.000011699782
 24      -0.000080841889
 25       0.000007710042
 26       0.000000581842
 27      -0.000001037946
 28       0.000005408843
 29      -0.000002672813
 30      -0.000000858077
 31       0.000001932656
 32       0.001012548496
 33       0.001545580018
 34      -0.000620221822
 35       0.003066423915
 36      -0.000020724367
 37       0.000048468760
 38       0.000011412595
 39       0.000021809685
 40      -0.000224124325
 41      -0.000849926802
 42      -0.000314585504
 43      -0.000885118656
 44      -0.000687376848
 45       0.000060634692
 46      -0.000039491116
 47      -0.000033170123
 48       0.000004317733
 49      -0.000021006385
 50      -0.000017815334
 51      -0.000008482849
 52       0.000090137487
 53       0.000039924677
 54       0.000169987314
 55       0.000114633681
 56      -0.000031389330
 57       0.000037182334
 58      -0.000028522337
 59      -0.000027417601
 60      -0.000023296966
 61      -0.000022852048
 62       0.000120127535
 63       0.435112420052
 64       0.639387070855
 65       0.037679472298
 66      -0.032255284374
 67       0.006797418218
 68      -0.001069065058
 69       0.001818373643
 70       0.000743339855
 71       0.002779646321
 72      -0.005180925334
 73      -0.002012549026
 74      -0.000300128182
 75      -0.000670786046
 76      -0.000263177766
 77      -0.000238468981
 78      -0.000117214274
 79       0.000043607819
 80       0.000027655360
 81       0.000174244520
 82       0.001419760653
 83       0.000731441682
 84      -0.000267146725
 85      -0.000237392228
 86      -0.000939882509
 87       0.000139148955
 88      -0.000043049445
 89       0.000115395769
 90      -0.000112804732
 91      -0.000030115585
 92      -0.000325898721
 93      -0.000070535390
 94      -0.000014803069
 95      -0.000024990192
 96      -0.000157350976
 97       0.001838949103
 98      -0.000225590272
 99      -0.000060483506
100      -0.000000961681
101       0.000015822616
102      -0.000475271074
103      -0.000492370707
104       0.000011129117
105       0.000050633671
106      -0.000639921860
107      -0.000255794391
108      -0.000078832232
109      -0.000049855117
110       0.000030622596
111       0.000005313441
112      -0.000007247729
113       0.000212158127
114       0.000150984880
115      -0.000132883055
116       0.000042196558
117       0.000164359823
118       0.000003769640
119      -0.000046866436
120      -0.000039956924
121      -0.000018180649
122       0.000013882692
123       0.000033871188
124       0.000003498546
125       0.000008002205
126      -0.000042940906
127       0.001237452796
128      -0.003831115241
129       0.004761039184
130       0.000356687818
131      -0.000024633242
132      -0.000043700925
133      -0.002443908902
134       0.000190801115
135       0.000410868862
136       0.000274799144
137      -0.001324669122
138      -0.000348034562
139       0.000003706521
140      -0.000074301407
141       0.000040828780
142       0.000081556431
143      -0.000032196774
144       0.001032460470
145       0.000697843810
146      -0.000483565291
147      -0.000703999018
148       0.000122273052
149      -0.000085638722
150       0.000137347414
151      -0.000000164070
152      -0.000027284588
153      -0.000077001276
154      -0.000041192035
155       0.000030638728
156       0.000017544985
157      -0.000085678102
158      -0.002307986884
159       0.008698353569
160      -0.010966495488
161      -0.000295718035
162      -0.000140026184
163       0.000107554051
164       0.005618264562
165       0.001813810226
166      -0.001870737394
167      -0.000057323241
168      -0.000971697768
169       0.000490410524
170      -0.000157755368
171      -0.000218046771
172       0.000013718913
173       0.000389930924
174      -0.000057082016
175      -0.001821034812
176      -0.001905081760
177      -0.000375767004
178       0.001988396800
179       0.000691836962
180       0.000382935281
181      -0.000287711918
182      -0.000051558558
183      -0.000443379245
184      -0.000017004481
185      -0.000516405768
186      -0.000064412541
187       0.000034234776
188      -0.000194812382
189      -0.000612914568
190       0.005131255291
191      -0.001018216615
192      -0.000046466291
193      -0.000128209235
194       0.000008526726
195      -0.002981232956
196      -0.006698295417
197      -0.000751437203
198       0.000450046429
199       0.001873130329
200       0.000482854289
201      -0.000292464887
202      -0.000007009505
203       0.000110773689
204      -0.000341138893
205       0.000324659438
206      -0.001213147748
207       0.000951280169
208       0.000489337685
209      -0.003147224880
210       0.002428583436
211       0.000163379813
212       0.000238224101
213       0.000447671843
214       0.000210278337
215       0.000097504070
216      -0.000113713343
217       0.000018263605
218       0.000026023366
219      -0.000051593868
220      -0.000245245288
221      -0.000158590622
222       0.000044528290
223      -0.000081313006
224       0.000021537733
225       0.000896255047
226       0.001605094219
227       0.000021724568
228       0.000123787177
229       0.000066187601
230       0.000028533347
231       0.001143421744
232       0.001893041338
233      -0.000017200552
234       0.000117179227
235      -0.000033451122
 Sym=     1a
 Ene= -1.91360940420815E+01
 Spin= Alpha
 Occup= 2.000000
  1      -0.000000188868
  2       0.000002277905
  3      -0.000018684679
  4       0.000037083109
  5      -0.000033260017
  6      -0.000001350747
  7      -0.000004675809
  8       0.000003259825
  9       0.000005828089
 10       0.000020960099
 11      -0.000015189844
 12      -0.000117247568
 13      -0.000027314622
 14      -0.000044023334
 15      -0.000001798610
 16       0.000004269666
 17      -0.000001453692
 18       0.000008180169
 19      -0.000004196215
 20       0.000010232201
 21      -0.000019244144
 22       0.000002939124
 23      -0.000026905906
 24       0.000015958279
 25       0.000002292708
 26      -0.000002176608
 27      -0.000002786713
 28       0.000000876116
 29       0.000000991467
 30      -0.000000247632
 31      -0.000000032500
 32       0.000016096015
 33       0.000032789637
 34      -0.000359175487
 35       0.002025736781
 36      -0.000258867749
 37      -0.000023612437
 38      -0.000005072701
 39       0.000004794481
 40       0.000797577579
 41      -0.000395419293
 42      -0.000304286633
 43       0.000579469358
 44       0.000310396453
 45      -0.000304548520
 46      -0.000069168568
 47      -0.000030875788
 48       0.000020802190
 49      -0.000018186150
 50       0.000003125194
 51       0.000131430438
 52      -0.000037880868
 53      -0.000008031181
 54       0.000280949241
 55      -0.000181806052
 56      -0.000047415549
 57       0.000048246397
 58      -0.000026938086
 59      -0.000006915097
 60      -0.000006778793
 61       0.000020040826
 62       0.000084658204
 63       0.000015418303
 64       0.000026099043
 65      -0.000292877899
 66       0.001828363619
 67      -0.000279564348
 68      -0.000033150383
 69       0.000014341805
 70       0.000009361722
 71       0.000643834104
 72       0.000646424983
 73      -0.000008321175
 74       0.000606705431
 75      -0.000027897185
 76       0.000028409580
 77      -0.000073248053
 78      -0.000022545660
 79       0.000031185187
 80      -0.000024236441
 81      -0.000010626415
 82       0.000121071527
 83       0.000083173036
 84      -0.000130033841
 85       0.000074542421
 86       0.000355367798
 87       0.000012205144
 88       0.000029472117
 89       0.000055958486
 90       0.000063064570
 91       0.000034759824
 92       0.000073390210
 93      -0.000004739879
 94       0.435078516313
 95       0.639484090266
 96       0.036755584002
 97      -0.032298460074
 98       0.010853608060
 99      -0.002220719828
100      -0.000683236182
101       0.000406213822
102       0.006755672837
103       0.002096975927
104      -0.001233648751
105      -0.000045381584
106      -0.000003195063
107       0.000009761087
108      -0.000117993625
109      -0.000083112746
110      -0.000055048336
111       0.000270607720
112       0.000177056692
113       0.000649086072
114       0.000420339491
115       0.000210249362
116      -0.001214084497
117      -0.000833688614
118       0.000042426129
119      -0.000087809164
120      -0.000030531309
121      -0.000045106341
122      -0.000026826815
123      -0.000066381894
124      -0.000099430976
125       0.000005616593
126      -0.000029204334
127       0.000342696869
128      -0.000381560803
129      -0.000924569333
130       0.000156499468
131       0.000001432359
132      -0.000019872548
133      -0.000631826900
134       0.000120809744
135       0.000077638416
136      -0.000734157577
137       0.000124952435
138       0.000572370192
139      -0.000012729520
140      -0.000012292742
141      -0.000001332607