
                                 *****************
                                 * O   R   C   A *
                                 *****************

                                            #,                                       
                                            ###                                      
                                            ####                                     
                                            #####                                    
                                            ######                                   
                                           ########,                                 
                                     ,,################,,,,,                         
                               ,,#################################,,                 
                          ,,##########################################,,             
                       ,#########################################, ''#####,          
                    ,#############################################,,   '####,        
                  ,##################################################,,,,####,       
                ,###########''''           ''''###############################       
              ,#####''   ,,,,##########,,,,          '''####'''          '####       
            ,##' ,,,,###########################,,,                        '##       
           ' ,,###''''                  '''############,,,                           
         ,,##''                                '''############,,,,        ,,,,,,###''
      ,#''                                            '''#######################'''  
     '                                                          ''''####''''         
             ,#######,   #######,   ,#######,      ##                                
            ,#'     '#,  ##    ##  ,#'     '#,    #''#        ,####,   ,####,        
            ##       ##  ##   ,#'  ##            #'  '#       #'       #'  '#        
            ##       ##  #######   ##           ,######,      #####,   #    #        
            '#,     ,#'  ##    ##  '#,     ,#' ,#      #,     #,   #   #,  ,#        
             '#######'   ##     ##  '#######'  #'      '#     '####' # '####'        



                #########################################################
                #                        -***-                          #
                #          Department of theory and spectroscopy        #
                #                                                       #
                #                      Frank Neese                      #
                #                                                       #
                #     Directorship, Architecture, Infrastructure        #
                #                    SHARK, DRIVERS                     #
                #        Core code/Algorithms in most modules           #
                #                                                       #
                #        Max Planck Institute fuer Kohlenforschung      #
                #                Kaiser Wilhelm Platz 1                 #
                #                 D-45470 Muelheim/Ruhr                 #
                #                      Germany                          #
                #                                                       #
                #                  All rights reserved                  #
                #                        -***-                          #
                #########################################################


                         Program Version 6.0.1  -  RELEASE   -


 With contributions from (in alphabetic order):
[Max-Planck-Institut fuer Kohlenforschung]                               
  Daniel Aravena         : Magnetic Suceptibility                        
  Michael Atanasov       : Ab Initio Ligand Field Theory (pilot matlab implementation)
  Alexander A. Auer      : GIAO ZORA, VPT2 properties, NMR spectrum      
  Ute Becker             : All parallelization in ORCA, NUMFREQ, NUMCALC 
  Giovanni Bistoni       : ED, misc. LED, open-shell LED, HFLD           
  Martin Brehm           : Molecular dynamics                            
  Dmytro Bykov           : pre 5.0 version of the SCF Hessian            
  Marcos Casanova-Páez   : Triplet and SCS-CIS(D). UHF-(DLPNO)-IP/EA/STEOM-CCSD. UHF-CVS-IP/STEOM-CCSD   
  Vijay G. Chilkuri      : MRCI spin determinant printing, contributions to CSF-ICE 
  Pauline Colinet        : FMM embedding                                 
  Dipayan Datta          : RHF DLPNO-CCSD density                        
  Achintya Kumar Dutta   : EOM-CC, STEOM-CC                              
  Nicolas Foglia         : Exact transition moments, OPA infrastructure, MCD improvements    
  Dmitry Ganyushin       : Spin-Orbit,Spin-Spin,Magnetic field MRCI      
  Miquel Garcia-Rates    : C-PCM and meta-GGA Hessian, CCSD/C-PCM, Gaussian charge scheme 
  Tiago L. C. Gouveia    : GS-ROHF, GS-ROCIS                             
  Yang Guo               : DLPNO-NEVPT2, F12-NEVPT2, CIM, IAO-localization        
  Andreas Hansen         : Spin unrestricted coupled pair/coupled cluster methods 
  Ingolf Harden          : AUTO-CI MPn and infrastructure                
  Benjamin Helmich-Paris : MC-RPA, TRAH-(SCF,CASSCF), AVAS, COSX integrals, SCF dyn. polar. 
  Lee Huntington         : MR-EOM, pCC                                   
  Robert Izsak           : Overlap fitted RIJCOSX, COSX-SCS-MP3, EOM     
  Riya Kayal             : Wick's Theorem for AUTO-CI, AUTO-CI UHF-CCSDT 
  Emily Kempfer          : AUTO-CI, RHF CISDT and CCSDT                  
  Christian Kollmar      : KDIIS, OOCD, Brueckner-CCSD(T), CCSD density, CASPT2, CASPT2-K, improved NEVPT2 
  Axel Koslowski         : Symmetry handling                             
  Simone Kossmann        : meta-GGA functionals, TD-DFT gradient, OOMP2, (MP2 Hessian; deprecated post 5.0) 
  Lucas Lang             : DCDCAS                                        
  Marvin Lechner         : AUTO-CI (C++ implementation), FIC-MRCC        
  Spencer Leger          : CASSCF response                               
  Dagmar Lenk            : GEPOL surface, SMD, ORCA-2-JSON               
  Dimitrios Liakos       : Extrapolation schemes; Compound Job, initial MDCI parallelization 
  Dimitrios Manganas     : Further ROCIS development; embedding schemes. LFT, Crystal Embedding 
  Dimitrios Pantazis     : SARC Basis sets                               
  Anastasios Papadopoulos: AUTO-CI, single reference methods and gradients 
  Taras Petrenko         : pre 6.0 DFT Hessian and TD-DFT gradient, (ASA, deprecated), ECA, 1-Electron XAS/XES, NRVS 
  Peter Pinski           : DLPNO-MP2, DLPNO-MP2 Gradient                 
  Christoph Reimann      : Effective Core Potentials                     
  Marius Retegan         : Local ZFS, SOC                                
  Christoph Riplinger    : Optimizer, TS searches, QM/MM, DLPNO-CCSD(T), (RO)-DLPNO pert. Triples 
  Michael Roemelt        : Original ROCIS implementation                 
  Masaaki Saitow         : Open-shell DLPNO-CCSD energy and density      
  Barbara Sandhoefer     : DKH picture change effects                    
  Kantharuban Sivalingam : CASSCF convergence/infrastructure, NEVPT2 and variants, FIC-MRCI 
  Bernardo de Souza      : ESD, SOC TD-DFT                               
  Georgi L. Stoychev     : AutoAux, RI-MP2 NMR, DLPNO-MP2 response, X2C  
  Van Anh Tran           : RI-MP2 g-tensors                              
  Willem Van den Heuvel  : Paramagnetic NMR                              
  Zikuan Wang            : NOTCH, Electric field optimization            
  Frank Wennmohs         : Technical directorship and infrastructure     
  Hang Xu                : AUTO-CI-Response properties                   
                                                                         
[FACCTs GmbH]                                                            
  Markus Bursch, Miquel Garcia-Rates, Christoph Riplinger, Bernardo de Souza, Georgi L. Stoychev 
                                                                 
  APM, Basis sets (HGBS, AHGBS, def-TZVP (Ac-Lr), def2-XVPD (La-Lu)), CI-OPT, improved COSX, DLPNO-Multilevel,           
  DOCKER, DRACO, updates on ESD, GOAT, IRC, LR-CPCM, MBIS, meta-GGA TD-DFT gradient, ML-optimized integration grids, 
  MM, NACMEs, nearIR, NEB, NEB-TS, NL-DFT gradient (VV10), 2- and 3-layer-ONIOM, interface openCOSMO-RS, QMMM,   
  Crystal-QMMM, SF, symmetry and pop. for TD-DFT, r2SCAN hybrids, SOLVATOR                                   
                                                                         
[Other institutions]                                                     
  V. Asgeirsson          : NEB                                           
  Christoph Bannwarth    : sTDA-DFT, sTD-DFT, PBEh-3c, B97-3c, D3        
  Sebastian Ehlert       : rSCAN, r2SCAN, r2SCAN-3c, D4, dhf basis sets  
  Marvin Friede          : D4 for Fr, Ra, Ac-Lr                          
  Lars Goerigk           : TD-DFT with DH, B97 family of functionals     
  Stefan Grimme          : VdW corrections, initial TS optimization, DFT functionals, gCP, sTDA/sTD-DF 
  Waldemar Hujo          : DFT-NL                                        
  H. Jonsson             : NEB                                           
  Holger Kruse           : gCP                                           
  Marcel Mueller         : wB97X-3c, vDZP basis set                      
  Hagen Neugebauer       : wr2SCAN                                       
  Tobias Risthaus        : range-separated hybrid DFT                    
  Lukas Wittmann         : regularized MP2, r2SCAN double-hybrids, wr2SCAN        
                                                                         
We gratefully acknowledge several colleagues who have allowed us to      
interface, adapt or use parts of their codes:                            
  Ed Valeev, F. Pavosevic, A. Kumar             : LibInt (2-el integral package), F12 methods 
  Garnet Chan, S. Sharma, J. Yang, R. Olivares  : DMRG                   
  Ulf Ekstrom                                   : XCFun DFT Library      
  Mihaly Kallay                                 : mrcc  (arbitrary order and MRCC methods)
  Frank Weinhold                                : gennbo (NPA and NBO analysis)           
  Simon Mueller                                 : openCOSMO-RS                            
  Christopher J. Cramer and Donald G. Truhlar   : smd solvation model                     
  S Lehtola, MJT Oliveira, MAL Marques          : LibXC Library                           
  Liviu Ungur et al                             : ANISO software                          


 Your calculation uses the libint2 library for the computation of 2-el integrals
 For citations please refer to: http://libint.valeyev.net

 Your ORCA version has been built with support for libXC version: 6.2.2
 For citations please refer to: https://libxc.gitlab.io

 This ORCA versions uses:
   CBLAS   interface :  Fast vector & matrix operations
   LAPACKE interface :  Fast linear algebra routines
   SCALAPACK package :  Parallel linear algebra routines
   Shared memory     :  Shared parallel matrices
   BLAS/LAPACK       :  OpenBLAS 0.3.27  USE64BITINT DYNAMIC_ARCH NO_AFFINITY SkylakeX SINGLE_THREADED
        Core in use  :  SkylakeX
   Copyright (c) 2011-2014, The OpenBLAS Project


NOTE: MaxCore=5000 MB was set to SCF,MP2,MDCI,CIPSI,MRCI and CIS
      => If you want to overwrite this, your respective input block should be placed after the MaxCore statement
Warning: RI is on but no J-basis has been assigned. Assigning Def2/J (nothing to worry about!)
================================================================================

----- Orbital basis set information -----
Your calculation utilizes the basis: def2-TZVP
   F. Weigend and R. Ahlrichs, Phys. Chem. Chem. Phys. 7, 3297 (2005).

----- AuxJ basis set information -----
Your calculation utilizes the auxiliary basis: def2/J
   F. Weigend, Phys. Chem. Chem. Phys. 8, 1057 (2006).

================================================================================
                                        WARNINGS
                       Please study these warnings very carefully!
================================================================================


================================================================================
                                       INPUT FILE
================================================================================
NAME = honokiol.inp
|  1> ! B3LYP def2-TZVP TightSCF
|  2> 
|  3> %maxcore 5000
|  4> 
|  5> %pal
|  6> nprocs 20
|  7> end
|  8> 
|  9> * xyz 0 1
| 10> O           0.14195807768700      2.09649645532458     -1.71758039806954
| 11>   O          -4.11677461060348     -1.26837164177824      1.41684880324460
| 12>   C           1.01891116879739      0.48345699501260     -0.19322734147882
| 13>   C          -0.33800932726144      0.05739617583861      0.23116680549651
| 14>   C          -2.61815229857950     -0.65370132487175     -0.31349482882857
| 15>   C          -1.35479687451475     -0.21310516274641     -0.69157709671374
| 16>   C           3.45346826346022      0.26136238808768      0.04650317081735
| 17>   C           2.14970525830338     -0.10589223448056      0.37790533534919
| 18>   C           1.23245772529607      1.48820741439248     -1.15454611461401
| 19>   C          -0.62961098801703     -0.12613827011741      1.58460348021307
| 20>   C          -2.87310475440862     -0.82903433453494      1.05248634283977
| 21>   C          -3.69695898954153     -0.91251261570987     -1.34392670576360
| 22>   C           4.64062278629025     -0.42027016401517      0.70081200154604
| 23>   C           3.62454268957433      1.25921805153624     -0.90760509468109
| 24>   C          -1.88139527644026     -0.56566201210519      1.99162797404432
| 25>   C           2.52468689267115      1.86535234434629     -1.50202397212605
| 26>   C          -4.59640653228220      0.27847809780774     -1.55514244948926
| 27>   C           4.74727074883829     -1.88370489969172      0.36921093847323
| 28>   C          -5.91306377421964      0.28053423358574     -1.39243536117994
| 29>   C           4.77707582238039     -2.86852104377716      1.25893889832586
| 30>   H          -1.15260504881687     -0.08591870383506     -1.74719351953062
| 31>   H           1.99892001751600     -0.90169542103129      1.09812194263413
| 32>   H           0.12342672771298      0.09035074618038      2.33182909427335
| 33>   H          -3.20911236432750     -1.15994897976417     -2.29230459583180
| 34>   H          -4.29936265813573     -1.77460017090506     -1.05267762209117
| 35>   H           5.55358819595958      0.08772939236327      0.37273196115468
| 36>   H           4.59088083253884     -0.30217588776499      1.78761082606425
| 37>   H           4.62234205592137      1.57163680494710     -1.19338084879926
| 38>   H          -2.09216495733860     -0.69823016739369      3.04813959902179
| 39>   H           2.67086537878111      2.64780291464514     -2.24017259855935
| 40>   H          -4.09519062302390      1.19361985887824     -1.86105840327675
| 41>   H           4.79578502485740     -2.12290157732642     -0.69038098167719
| 42>   H           0.44107952413746      2.79356728757637     -2.31219057680528
| 43>   H          -4.16086903685334     -1.34587982130528      2.37639188148268
| 44>   H          -6.50376648573178      1.17158762663064     -1.56626406490827
| 45>   H          -6.44716526510819     -0.60760264562391     -1.07330047833755
| 46>   H           4.85726856263323     -3.90517883585645      0.95637994783046
| 47>   H           4.72445411184790     -2.67335087251834      2.32487404995057
| 48> *
| 49> 
| 50>                          ****END OF INPUT****
================================================================================

                       ****************************
                       * Single Point Calculation *
                       ****************************

---------------------------------
CARTESIAN COORDINATES (ANGSTROEM)
---------------------------------
  O      0.141958    2.096496   -1.717580
  O     -4.116775   -1.268372    1.416849
  C      1.018911    0.483457   -0.193227
  C     -0.338009    0.057396    0.231167
  C     -2.618152   -0.653701   -0.313495
  C     -1.354797   -0.213105   -0.691577
  C      3.453468    0.261362    0.046503
  C      2.149705   -0.105892    0.377905
  C      1.232458    1.488207   -1.154546
  C     -0.629611   -0.126138    1.584603
  C     -2.873105   -0.829034    1.052486
  C     -3.696959   -0.912513   -1.343927
  C      4.640623   -0.420270    0.700812
  C      3.624543    1.259218   -0.907605
  C     -1.881395   -0.565662    1.991628
  C      2.524687    1.865352   -1.502024
  C     -4.596407    0.278478   -1.555142
  C      4.747271   -1.883705    0.369211
  C     -5.913064    0.280534   -1.392435
  C      4.777076   -2.868521    1.258939
  H     -1.152605   -0.085919   -1.747194
  H      1.998920   -0.901695    1.098122
  H      0.123427    0.090351    2.331829
  H     -3.209112   -1.159949   -2.292305
  H     -4.299363   -1.774600   -1.052678
  H      5.553588    0.087729    0.372732
  H      4.590881   -0.302176    1.787611
  H      4.622342    1.571637   -1.193381
  H     -2.092165   -0.698230    3.048140
  H      2.670865    2.647803   -2.240173
  H     -4.095191    1.193620   -1.861058
  H      4.795785   -2.122902   -0.690381
  H      0.441080    2.793567   -2.312191
  H     -4.160869   -1.345880    2.376392
  H     -6.503766    1.171588   -1.566264
  H     -6.447165   -0.607603   -1.073300
  H      4.857269   -3.905179    0.956380
  H      4.724454   -2.673351    2.324874

----------------------------
CARTESIAN COORDINATES (A.U.)
----------------------------
  NO LB      ZA    FRAG     MASS         X           Y           Z
   0 O     8.0000    0    15.999    0.268262    3.961804   -3.245757
   1 O     8.0000    0    15.999   -7.779577   -2.396875    2.677456
   2 C     6.0000    0    12.011    1.925463    0.913601   -0.365147
   3 C     6.0000    0    12.011   -0.638745    0.108463    0.436842
   4 C     6.0000    0    12.011   -4.947591   -1.235316   -0.592419
   5 C     6.0000    0    12.011   -2.560195   -0.402710   -1.306891
   6 C     6.0000    0    12.011    6.526109    0.493903    0.087878
   7 C     6.0000    0    12.011    4.062354   -0.200107    0.714138
   8 C     6.0000    0    12.011    2.329008    2.812304   -2.181776
   9 C     6.0000    0    12.011   -1.189792   -0.238367    2.994467
  10 C     6.0000    0    12.011   -5.429381   -1.566648    1.988911
  11 C     6.0000    0    12.011   -6.986240   -1.724399   -2.539653
  12 C     6.0000    0    12.011    8.769506   -0.794196    1.324343
  13 C     6.0000    0    12.011    6.849393    2.379577   -1.715125
  14 C     6.0000    0    12.011   -3.555322   -1.068946    3.763631
  15 C     6.0000    0    12.011    4.770967    3.525005   -2.838414
  16 C     6.0000    0    12.011   -8.685950    0.526247   -2.938793
  17 C     6.0000    0    12.011    8.971042   -3.559686    0.697708
  18 C     6.0000    0    12.011  -11.174071    0.530133   -2.631321
  19 C     6.0000    0    12.011    9.027365   -5.420719    2.379050
  20 H     1.0000    0     1.008   -2.178108   -0.162363   -3.301717
  21 H     1.0000    0     1.008    3.777411   -1.703957    2.075150
  22 H     1.0000    0     1.008    0.233243    0.170738    4.406518
  23 H     1.0000    0     1.008   -6.064344   -2.191986   -4.331828
  24 H     1.0000    0     1.008   -8.124618   -3.353508   -1.989272
  25 H     1.0000    0     1.008   10.494761    0.165785    0.704361
  26 H     1.0000    0     1.008    8.675507   -0.571030    3.378095
  27 H     1.0000    0     1.008    8.734961    2.969963   -2.255163
  28 H     1.0000    0     1.008   -3.953619   -1.319464    5.760149
  29 H     1.0000    0     1.008    5.047204    5.003622   -4.233313
  30 H     1.0000    0     1.008   -7.738789    2.255615   -3.516891
  31 H     1.0000    0     1.008    9.062720   -4.011703   -1.304631
  32 H     1.0000    0     1.008    0.833520    5.279077   -4.369407
  33 H     1.0000    0     1.008   -7.862903   -2.543344    4.490730
  34 H     1.0000    0     1.008  -12.290337    2.213980   -2.959810
  35 H     1.0000    0     1.008  -12.183377   -1.148203   -2.028244
  36 H     1.0000    0     1.008    9.178907   -7.379719    1.807296
  37 H     1.0000    0     1.008    8.927924   -5.051901    4.393375

--------------------------------
INTERNAL COORDINATES (ANGSTROEM)
--------------------------------
 O      0   0   0     0.000000000000     0.00000000     0.00000000
 O      1   0   0     6.267678026133     0.00000000     0.00000000
 C      1   2   0     2.386335111771    64.36464753     0.00000000
 C      3   1   2     1.484207346110    92.33374644   359.05415957
 C      2   1   3     2.370185123073    20.94290151   269.07163455
 C      5   2   1     1.390373369596   148.78398455    47.64879240
 C      3   1   2     2.456392676289   119.18823877   180.24475726
 C      7   3   1     1.394453773371    28.40035757   179.76481193
 C      1   2   3     1.369749116846    95.56499342     0.53504656
 C      4   3   1     1.396605618589   120.37867335   224.90305585
 C      2   1   3     1.368390289097    22.62075253     3.15339714
 C      5   2   1     1.514132429391    90.11485175   228.37613061
 C      7   3   1     1.517260308296   149.11327391   180.02040259
 C      7   3   1     1.391152388000    89.43232114   359.38958283
 C     10   4   3     1.387736993487   120.94365348   182.09111850
 C     14   7   3     1.389393881074   120.59697685   359.94699621
 C     12   5   2     1.507340987376   112.67205339    85.59584235
 C     13   7   3     1.504318542906   113.41902529    64.28632612
 C     17  12   5     1.326674080936   125.18688790   237.85276666
 C     18  13   7     1.327541721606   125.13670060   236.78038494
 H      6   5   2     1.082304930151   118.17795600   179.15905681
 H      8   7   3     1.083859244539   118.77463081   178.66247963
 H     10   4   3     1.082718529350   119.82238881     3.01888654
 H     12   5   2     1.094824052695   108.09908878   205.92025725
 H     12   5   2     1.091288761739   110.28601276   323.03340184
 H     13   7   3     1.095082600280   108.34322287   185.48795828
 H     13   7   3     1.094327284235   110.13485048   301.70507432
 H     14   7   3     1.083917355986   120.05093823   179.89006487
 H     15  10   4     1.085456119746   119.95465442   180.29654026
 H     16  14   7     1.085569177652   119.91769065   179.56696145
 H     17  12   5     1.087329941338   115.42737784    57.61632636
 H     18  13   7     1.087337906456   115.59303639    56.38256962
 H      1   2   3     0.963816709525   155.18658882   186.10574497
 H      2   1   3     0.963677723782   124.90506073    54.81619992
 H     19  17  12     1.083107686652   121.52374268   180.33357709
 H     19  17  12     1.084388579905   121.57690410     0.72696991
 H     20  18  13     1.082881421021   121.63958537   180.12983081
 H     20  18  13     1.084932342424   121.59644913     0.00000000

---------------------------
INTERNAL COORDINATES (A.U.)
---------------------------
 O      0   0   0     0.000000000000     0.00000000     0.00000000
 O      1   0   0    11.844194964987     0.00000000     0.00000000
 C      1   2   0     4.509519825007    64.36464753     0.00000000
 C      3   1   2     2.804745410102    92.33374644   359.05415957
 C      2   1   3     4.479000769303    20.94290151   269.07163455
 C      5   2   1     2.627424892434   148.78398455    47.64879240
 C      3   1   2     4.641909435555   119.18823877   180.24475726
 C      7   3   1     2.635135738085    28.40035757   179.76481193
 C      1   2   3     2.588450703019    95.56499342     0.53504656
 C      4   3   1     2.639202136230   120.37867335   224.90305585
 C      2   1   3     2.585882890711    22.62075253     3.15339714
 C      5   2   1     2.861295622038    90.11485175   228.37613061
 C      7   3   1     2.867206456549   149.11327391   180.02040259
 C      7   3   1     2.628897023871    89.43232114   359.38958283
 C     10   4   3     2.622442863602   120.94365348   182.09111850
 C     14   7   3     2.625573927375   120.59697685   359.94699621
 C     12   5   2     2.848461656576   112.67205339    85.59584235
 C     13   7   3     2.842750064272   113.41902529    64.28632612
 C     17  12   5     2.507050681940   125.18688790   237.85276666
 C     18  13   7     2.508690285189   125.13670060   236.78038494
 H      6   5   2     2.045259911379   118.17795600   179.15905681
 H      8   7   3     2.048197139897   118.77463081   178.66247963
 H     10   4   3     2.046041500593   119.82238881     3.01888654
 H     12   5   2     2.068917624423   108.09908878   205.92025725
 H     12   5   2     2.062236892713   110.28601276   323.03340184
 H     13   7   3     2.069406208552   108.34322287   185.48795828
 H     13   7   3     2.067978868081   110.13485048   301.70507432
 H     14   7   3     2.048306954617   120.05093823   179.89006487
 H     15  10   4     2.051214796710   119.95465442   180.29654026
 H     16  14   7     2.051428445188   119.91769065   179.56696145
 H     17  12   5     2.054755806342   115.42737784    57.61632636
 H     18  13   7     2.054770858234   115.59303639    56.38256962
 H      1   2   3     1.821349624299   155.18658882   186.10574497
 H      2   1   3     1.821086979309   124.90506073    54.81619992
 H     19  17  12     2.046776901317   121.52374268   180.33357709
 H     19  17  12     2.049197438772   121.57690410     0.72696991
 H     20  18  13     2.046349321242   121.63958537   180.12983081
 H     20  18  13     2.050225001015   121.59644913     0.00000000

---------------------
BASIS SET INFORMATION
---------------------
There are 3 groups of distinct atoms

 Group   1 Type O   : 11s6p2d1f contracted to 5s3p2d1f pattern {62111/411/11/1}
 Group   2 Type C   : 11s6p2d1f contracted to 5s3p2d1f pattern {62111/411/11/1}
 Group   3 Type H   : 5s1p contracted to 3s1p pattern {311/1}

Atom   0O    basis set group =>   1
Atom   1O    basis set group =>   1
Atom   2C    basis set group =>   2
Atom   3C    basis set group =>   2
Atom   4C    basis set group =>   2
Atom   5C    basis set group =>   2
Atom   6C    basis set group =>   2
Atom   7C    basis set group =>   2
Atom   8C    basis set group =>   2
Atom   9C    basis set group =>   2
Atom  10C    basis set group =>   2
Atom  11C    basis set group =>   2
Atom  12C    basis set group =>   2
Atom  13C    basis set group =>   2
Atom  14C    basis set group =>   2
Atom  15C    basis set group =>   2
Atom  16C    basis set group =>   2
Atom  17C    basis set group =>   2
Atom  18C    basis set group =>   2
Atom  19C    basis set group =>   2
Atom  20H    basis set group =>   3
Atom  21H    basis set group =>   3
Atom  22H    basis set group =>   3
Atom  23H    basis set group =>   3
Atom  24H    basis set group =>   3
Atom  25H    basis set group =>   3
Atom  26H    basis set group =>   3
Atom  27H    basis set group =>   3
Atom  28H    basis set group =>   3
Atom  29H    basis set group =>   3
Atom  30H    basis set group =>   3
Atom  31H    basis set group =>   3
Atom  32H    basis set group =>   3
Atom  33H    basis set group =>   3
Atom  34H    basis set group =>   3
Atom  35H    basis set group =>   3
Atom  36H    basis set group =>   3
Atom  37H    basis set group =>   3
---------------------------------
AUXILIARY/J BASIS SET INFORMATION
---------------------------------
There are 3 groups of distinct atoms

 Group   1 Type O   : 12s5p4d2f1g contracted to 6s4p3d1f1g pattern {711111/2111/211/2/1}
 Group   2 Type C   : 12s5p4d2f1g contracted to 6s4p3d1f1g pattern {711111/2111/211/2/1}
 Group   3 Type H   : 5s2p1d contracted to 3s1p1d pattern {311/2/1}

Atom   0O    basis set group =>   1
Atom   1O    basis set group =>   1
Atom   2C    basis set group =>   2
Atom   3C    basis set group =>   2
Atom   4C    basis set group =>   2
Atom   5C    basis set group =>   2
Atom   6C    basis set group =>   2
Atom   7C    basis set group =>   2
Atom   8C    basis set group =>   2
Atom   9C    basis set group =>   2
Atom  10C    basis set group =>   2
Atom  11C    basis set group =>   2
Atom  12C    basis set group =>   2
Atom  13C    basis set group =>   2
Atom  14C    basis set group =>   2
Atom  15C    basis set group =>   2
Atom  16C    basis set group =>   2
Atom  17C    basis set group =>   2
Atom  18C    basis set group =>   2
Atom  19C    basis set group =>   2
Atom  20H    basis set group =>   3
Atom  21H    basis set group =>   3
Atom  22H    basis set group =>   3
Atom  23H    basis set group =>   3
Atom  24H    basis set group =>   3
Atom  25H    basis set group =>   3
Atom  26H    basis set group =>   3
Atom  27H    basis set group =>   3
Atom  28H    basis set group =>   3
Atom  29H    basis set group =>   3
Atom  30H    basis set group =>   3
Atom  31H    basis set group =>   3
Atom  32H    basis set group =>   3
Atom  33H    basis set group =>   3
Atom  34H    basis set group =>   3
Atom  35H    basis set group =>   3
Atom  36H    basis set group =>   3
Atom  37H    basis set group =>   3


           ************************************************************
           *        Program running with 20 parallel MPI-processes    *
           *              working on a common directory               *
           ************************************************************
------------------------------------------------------------------------------
                             ORCA STARTUP CALCULATIONS
                           -- RI-GTO INTEGRALS CHOSEN --
------------------------------------------------------------------------------
------------------------------------------------------------------------------
                   ___                                                        
                  /   \      - P O W E R E D   B Y -                         
                 /     \                                                     
                 |  |  |   _    _      __       _____    __    __             
                 |  |  |  | |  | |    /  \     |  _  \  |  |  /  |          
                  \  \/   | |  | |   /    \    | | | |  |  | /  /          
                 / \  \   | |__| |  /  /\  \   | |_| |  |  |/  /          
                |  |  |   |  __  | /  /__\  \  |    /   |      \           
                |  |  |   | |  | | |   __   |  |    \   |  |\   \          
                \     /   | |  | | |  |  |  |  | |\  \  |  | \   \       
                 \___/    |_|  |_| |__|  |__|  |_| \__\ |__|  \__/        
                                                                              
                      - O R C A' S   B I G   F R I E N D -                    
                                      &                                       
                       - I N T E G R A L  F E E D E R -                       
                                                                              
 v1 FN, 2020, v2 2021, v3 2022-2024                                           
------------------------------------------------------------------------------


----------------------
SHARK INTEGRAL PACKAGE
----------------------

Number of atoms                             ...     38
Number of basis functions                   ...    728
Number of shells                            ...    292
Maximum angular momentum                    ...      3
Integral batch strategy                     ... SHARK/LIBINT Hybrid
RI-J (if used) integral strategy            ... SPLIT-RIJ (Revised 2003 algorithm where possible)
Printlevel                                  ...      1
Contraction scheme used                     ... SEGMENTED contraction
Prescreening option                         ... SCHWARTZ
   Thresh                                   ... 2.500e-11
   Tcut                                     ... 2.500e-12
   Tpresel                                  ... 2.500e-12 
Coulomb Range Separation                    ... NOT USED
Exchange Range Separation                   ... NOT USED
Multipole approximations                    ... NOT USED
Finite Nucleus Model                        ... NOT USED
CABS basis                                  ... NOT available
Auxiliary Coulomb fitting basis             ... AVAILABLE
   # of basis functions in Aux-J            ...   1178
   # of shells in Aux-J                     ...    390
   Maximum angular momentum in Aux-J        ...      4
Auxiliary J/K fitting basis                 ... NOT available
Auxiliary Correlation fitting basis         ... NOT available
Auxiliary 'external' fitting basis          ... NOT available

Checking pre-screening integrals            ... done (  0.0 sec) Dimension = 292
Check shell pair data                       ... done (  0.0 sec)
Shell pair information
Shell pair cut-off parameter TPreSel        ...   2.5e-12
Total number of shell pairs                 ...     42778
Shell pairs after pre-screening             ...     29254
Total number of primitive shell pairs       ...    129780
Primitive shell pairs kept                  ...     59806
          la=0 lb=0:   7834 shell pairs
          la=1 lb=0:   8513 shell pairs
          la=1 lb=1:   2335 shell pairs
          la=2 lb=0:   4103 shell pairs
          la=2 lb=1:   2259 shell pairs
          la=2 lb=2:    563 shell pairs
          la=3 lb=0:   1922 shell pairs
          la=3 lb=1:   1079 shell pairs
          la=3 lb=2:    515 shell pairs
          la=3 lb=3:    131 shell pairs

Calculating one electron integrals          ... done (  0.0 sec)
Calculating RI/J V-Matrix + Cholesky decomp.... done (  0.1 sec)
Calculating Nuclear repulsion               ... done (  0.0 sec) ENN=   1411.268273201538 Eh

Diagonalization of the overlap matrix:
Smallest eigenvalue                        ... 6.560e-06
Time for diagonalization                   ...    0.073 sec
Threshold for overlap eigenvalues          ... 1.000e-07
Number of eigenvalues below threshold      ... 0
Time for construction of square roots      ...    0.028 sec
Total time needed                          ...    0.105 sec

-------------------
DFT GRID GENERATION
-------------------

General Integration Accuracy     IntAcc      ... 4.388
Radial Grid Type                 RadialGrid  ... OptM3 with GC (2021)
Angular Grid (max. ang.)         AngularGrid ... 4 (Lebedev-302)
Angular grid pruning method      GridPruning ... 4 (adaptive)
Weight generation scheme         WeightScheme... mBecke (2022)
Basis function cutoff            BFCut       ... 1.0000e-11
Integration weight cutoff        WCut        ... 1.0000e-14
Partially contracted basis set               ... off
Rotationally invariant grid construction     ... off
Angular grids for H and He will be reduced by one unit

Total number of grid points                  ...   177216
Total number of batches                      ...     2787
Average number of points per batch           ...       63
Average number of grid points per atom       ...     4664

--------------------
COSX GRID GENERATION
--------------------

GRIDX 1
-------
General Integration Accuracy     IntAcc      ... 3.816
Radial Grid Type                 RadialGrid  ... OptM3 with GC (2021)
Angular Grid (max. ang.)         AngularGrid ... 1 (Lebedev-50)
Angular grid pruning method      GridPruning ... 4 (adaptive)
Weight generation scheme         WeightScheme... mBecke (2022)
Basis function cutoff            BFCut       ... 1.0000e-11
Integration weight cutoff        WCut        ... 1.0000e-14
Partially contracted basis set               ... on
Rotationally invariant grid construction     ... off
Angular grids for H and He will be reduced by one unit

Total number of grid points                  ...    22555
Total number of batches                      ...      200
Average number of points per batch           ...      112
Average number of grid points per atom       ...      594
UseSFitting                                  ... on

GRIDX 2
-------
General Integration Accuracy     IntAcc      ... 4.020
Radial Grid Type                 RadialGrid  ... OptM3 with GC (2021)
Angular Grid (max. ang.)         AngularGrid ... 2 (Lebedev-110)
Angular grid pruning method      GridPruning ... 4 (adaptive)
Weight generation scheme         WeightScheme... mBecke (2022)
Basis function cutoff            BFCut       ... 1.0000e-11
Integration weight cutoff        WCut        ... 1.0000e-14
Partially contracted basis set               ... on
Rotationally invariant grid construction     ... off
Angular grids for H and He will be reduced by one unit

Total number of grid points                  ...    48648
Total number of batches                      ...      400
Average number of points per batch           ...      121
Average number of grid points per atom       ...     1280
UseSFitting                                  ... on

GRIDX 3
-------
General Integration Accuracy     IntAcc      ... 4.338
Radial Grid Type                 RadialGrid  ... OptM3 with GC (2021)
Angular Grid (max. ang.)         AngularGrid ... 3 (Lebedev-194)
Angular grid pruning method      GridPruning ... 4 (adaptive)
Weight generation scheme         WeightScheme... mBecke (2022)
Basis function cutoff            BFCut       ... 1.0000e-11
Integration weight cutoff        WCut        ... 1.0000e-14
Partially contracted basis set               ... on
Rotationally invariant grid construction     ... off
Angular grids for H and He will be reduced by one unit

Total number of grid points                  ...   106347
Total number of batches                      ...      852
Average number of points per batch           ...      124
Average number of grid points per atom       ...     2799
UseSFitting                                  ... on
Initializing property integral containers    ... done (  0.0 sec)

SHARK setup successfully completed in   2.3 seconds

Maximum memory used throughout the entire STARTUP-calculation: 70.0 MB


           ************************************************************
           *        Program running with 20 parallel MPI-processes    *
           *              working on a common directory               *
           ************************************************************
-------------------------------------------------------------------------------
                                 ORCA GUESS
                   Start orbitals & Density for SCF / CASSCF
-------------------------------------------------------------------------------

------------
SCF SETTINGS
------------
Hamiltonian:
 Density Functional     Method          .... DFT(GTOs)
 Exchange Functional    Exchange        .... B88
   X-Alpha parameter    XAlpha          ....  0.666667
   Becke's b parameter  XBeta           ....  0.004200
 Correlation Functional Correlation     .... LYP
 LDA part of GGA corr.  LDAOpt          .... VWN-5
 Gradients option       PostSCFGGA      .... off
 Hybrid DFT is turned on
   Fraction HF Exchange ScalHFX         ....  0.200000
   Scaling of DF-GGA-X  ScalDFX         ....  0.720000
   Scaling of DF-GGA-C  ScalDFC         ....  0.810000
   Scaling of DF-LDA-C  ScalLDAC        ....  1.000000
   Perturbative correction              ....  0.000000
   NL short-range parameter             ....  4.800000
 RI-approximation to the Coulomb term is turned on
   Number of AuxJ basis functions       .... 1178
   RIJ-COSX (HFX calculated with COS-X)).... on


General Settings:
 Integral files         IntName         .... honokiol
 Hartree-Fock type      HFTyp           .... RHF
 Total Charge           Charge          ....    0
 Multiplicity           Mult            ....    1
 Number of Electrons    NEL             ....  142
 Basis Dimension        Dim             ....  728
 Nuclear Repulsion      ENuc            ....   1411.2682732015 Eh

Convergence Acceleration:
 AO-DIIS                CNVDIIS         .... on
   Start iteration      DIISMaxIt       ....    12
   Startup error        DIISStart       ....  0.200000
   # of expansion vecs  DIISMaxEq       ....     5
   Bias factor          DIISBfac        ....   1.050
   Max. coefficient     DIISMaxC        ....  10.000
 MO-DIIS                CNVKDIIS        .... off
 Trust-Rad. Augm. Hess. CNVTRAH         .... auto
   Auto Start mean grad. ratio tolernc. ....  1.125000
   Auto Start start iteration           ....    50
   Auto Start num. interpolation iter.  ....    10
   Max. Number of Micro iterations      ....    24
   Max. Number of Macro iterations      .... Maxiter - #DIIS iter
   Number of Davidson start vectors     ....     2
   Converg. threshold    (grad. norm)   ....   1.000e-05
   Grad. Scal. Fac. for Micro threshold ....   0.100
   Minimum threshold for Micro iter.    ....   1.000e-02
   NR start threshold (gradient norm)   ....   1.000e-04
   Initial trust radius                 ....   0.400
   Minimum AH scaling param. (alpha)    ....   1.000
   Maximum AH scaling param. (alpha)    .... 1000.000
   Quad. conv. algorithm                .... NR
   White noise on init. David. guess    .... on
   Maximum white noise                  ....   0.010
   Pseudo random numbers                .... off
   Inactive MOs                         .... canonical
   Orbital update algorithm             .... Taylor
   Preconditioner                       .... Diag
   Full preconditioner red. dimension   ....   250
 SOSCF                  CNVSOSCF        .... on
   Start iteration      SOSCFMaxIt      ....   150
   Startup grad/error   SOSCFStart      ....  0.003300
   Hessian update       SOSCFHessUp     .... L-BFGS
 Level Shifting         CNVShift        .... on
   Level shift para.    LevelShift      ....    0.2500
   Turn off err/grad.   ShiftErr        ....    0.0010
 Zerner damping         CNVZerner       .... off
 Static damping         CNVDamp         .... on
   Fraction old density DampFac         ....    0.7000
   Max. Damping (<1)    DampMax         ....    0.9800
   Min. Damping (>=0)   DampMin         ....    0.0000
   Turn off err/grad.   DampErr         ....    0.1000

SCF Procedure:
 Maximum # iterations   MaxIter         ....   125
 SCF integral mode      SCFMode         .... Direct
   Integral package                     .... SHARK and LIBINT hybrid scheme
 Reset frequency        DirectResetFreq ....    20
 Integral Threshold     Thresh          ....  2.500e-11 Eh
 Primitive CutOff       TCut            ....  2.500e-12 Eh

Convergence Tolerance:
 Convergence Check Mode ConvCheckMode   .... Total+1el-Energy
 Convergence forced     ConvForced      .... 0
 Energy Change          TolE            ....  1.000e-08 Eh
 1-El. energy change                    ....  1.000e-05 Eh
 Orbital Gradient       TolG            ....  1.000e-05
 Orbital Rotation angle TolX            ....  1.000e-05
 DIIS Error             TolErr          ....  5.000e-07

------------------------------
INITIAL GUESS: MODEL POTENTIAL
------------------------------
Loading Hartree-Fock densities                     ... done
Calculating cut-offs                               ... done
Initializing the effective Hamiltonian             ... done
Setting up the integral package (SHARK)            ... done
Starting the Coulomb interaction                   ... done (   0.1 sec)
Making the grid                                    ... done (   0.2 sec)
Mapping shells                                     ... done
Starting the XC term evaluation                    ... done (   0.1 sec)
  promolecular density results
     # of electrons  =    141.997164488
     EX              =   -114.319398458
     EC              =     -4.772511772
     EX+EC           =   -119.091910230
Transforming the Hamiltonian                       ... done (   0.0 sec)
Diagonalizing the Hamiltonian                      ... done (   0.1 sec)
Back transforming the eigenvectors                 ... done (   0.0 sec)
Now organizing SCF variables                       ... done
                      ------------------
                      INITIAL GUESS DONE (   0.6 sec)
                      ------------------
             **** ENERGY FILE WAS UPDATED (honokiol.en.tmp) ****
Finished Guess after   1.5 sec
Maximum memory used throughout the entire GUESS-calculation: 54.2 MB


           ************************************************************
           *        Program running with 20 parallel MPI-processes    *
           *              working on a common directory               *
           ************************************************************

-------------------------------------------------------------------------------------------
                                      ORCA LEAN-SCF
                              memory conserving SCF solver
-------------------------------------------------------------------------------------------

----------------------------------------D-I-I-S--------------------------------------------
Iteration    Energy (Eh)           Delta-E    RMSDP     MaxDP     DIISErr   Damp  Time(sec)
-------------------------------------------------------------------------------------------
               ***  Starting incremental Fock matrix formation  ***
    1    -846.3991359621006723     0.00e+00  1.51e-03  1.20e-01  2.36e-01  0.700   4.1
    2    -846.6544613826138175    -2.55e-01  1.23e-03  1.14e-01  1.06e-01  0.700   2.5
                               ***Turning on AO-DIIS***
    3    -846.7634942388347099    -1.09e-01  4.29e-04  1.87e-02  4.03e-02  0.700   2.3
    4    -846.8263779524379515    -6.29e-02  7.19e-04  3.06e-02  2.20e-02  0.000   2.2
    5    -846.9617465194730812    -1.35e-01  2.33e-04  2.22e-02  6.23e-03  0.000   2.3
                              *** Initializing SOSCF ***
---------------------------------------S-O-S-C-F--------------------------------------
Iteration    Energy (Eh)           Delta-E    RMSDP     MaxDP     MaxGrad    Time(sec)
--------------------------------------------------------------------------------------
    6    -846.9624159159018291    -6.69e-04  9.18e-05  6.51e-03  1.48e-03     2.2
               *** Restarting incremental Fock matrix formation ***
    7    -846.9624423351413043    -2.64e-05  7.56e-05  3.28e-03  2.52e-04     4.0
    8    -846.9624351801655848     7.15e-06  1.68e-05  9.12e-04  5.73e-04     2.9
    9    -846.9624487078228867    -1.35e-05  1.06e-05  5.20e-04  4.37e-05     2.6
   10    -846.9624486120426354     9.58e-08  3.07e-06  2.27e-04  5.97e-05     2.5
   11    -846.9624488881647721    -2.76e-07  3.71e-06  3.05e-04  2.24e-05     2.1
   12    -846.9624488831889266     4.98e-09  1.09e-06  4.00e-05  2.70e-05     2.1
                 **** Energy Check signals convergence ****

               *****************************************************
               *                     SUCCESS                       *
               *           SCF CONVERGED AFTER  12 CYCLES          *
               *****************************************************

Recomputing exchange energy using gridx3       ... done (    6.190 sec)
Old exchange energy                            :    -23.254141835 Eh
New exchange energy                            :    -23.254145212 Eh
Exchange energy change after final integration :     -0.000003377 Eh
Total energy after final integration           :   -846.962452260 Eh
             **** ENERGY FILE WAS UPDATED (honokiol.en.tmp) ****

----------------
TOTAL SCF ENERGY
----------------

Total Energy       :       -846.96245226010251 Eh          -23047.02001 eV

Components:
Nuclear Repulsion  :       1411.26827320153802 Eh           38402.56206 eV
Electronic Energy  :      -2258.23072208472695 Eh          -61449.58198 eV
One Electron Energy:      -3951.30004652923708 Eh         -107520.34049 eV
Two Electron Energy:       1693.06932444451013 Eh           46070.75851 eV

Virial components:
Potential Energy   :      -1690.10979541437791 Eh          -45990.22563 eV
Kinetic Energy     :        843.14734315427529 Eh           22943.20562 eV
Virial Ratio       :          2.00452484270609

DFT components:
N(Alpha)           :       70.999972148306 electrons
N(Beta)            :       70.999972148306 electrons
N(Total)           :      141.999944296611 electrons
E(X)               :      -92.379441402582 Eh       
E(C)               :       -5.638015038654 Eh       
E(XC)              :      -98.017456441236 Eh       

---------------
SCF CONVERGENCE
---------------

  Last Energy change         ...   -4.9758e-09  Tolerance :   1.0000e-08
  Last MAX-Density change    ...    4.0025e-05  Tolerance :   1.0000e-07
  Last RMS-Density change    ...    1.0887e-06  Tolerance :   5.0000e-09
  Last DIIS Error            ...    1.4786e-03  Tolerance :   5.0000e-07
  Last Orbital Gradient      ...    2.6999e-05  Tolerance :   1.0000e-05
  Last Orbital Rotation      ...    3.2768e-05  Tolerance :   1.0000e-05


----------------
ORBITAL ENERGIES
----------------

  NO   OCC          E(Eh)            E(eV) 
   0   2.0000     -19.156314      -521.2698 
   1   2.0000     -19.154604      -521.2233 
   2   2.0000     -10.233889      -278.4783 
   3   2.0000     -10.229343      -278.3546 
   4   2.0000     -10.180397      -277.0227 
   5   2.0000     -10.175284      -276.8835 
   6   2.0000     -10.174475      -276.8615 
   7   2.0000     -10.173967      -276.8477 
   8   2.0000     -10.173385      -276.8319 
   9   2.0000     -10.173136      -276.8251 
  10   2.0000     -10.172930      -276.8195 
  11   2.0000     -10.172263      -276.8013 
  12   2.0000     -10.170239      -276.7463 
  13   2.0000     -10.169301      -276.7207 
  14   2.0000     -10.168683      -276.7039 
  15   2.0000     -10.168396      -276.6961 
  16   2.0000     -10.165756      -276.6243 
  17   2.0000     -10.165479      -276.6168 
  18   2.0000     -10.159773      -276.4615 
  19   2.0000     -10.151775      -276.2439 
  20   2.0000      -1.063061       -28.9274 
  21   2.0000      -1.060839       -28.8669 
  22   2.0000      -0.866491       -23.5784 
  23   2.0000      -0.850025       -23.1303 
  24   2.0000      -0.802584       -21.8394 
  25   2.0000      -0.794459       -21.6183 
  26   2.0000      -0.769977       -20.9521 
  27   2.0000      -0.746591       -20.3158 
  28   2.0000      -0.743220       -20.2240 
  29   2.0000      -0.718901       -19.5623 
  30   2.0000      -0.679378       -18.4868 
  31   2.0000      -0.673559       -18.3285 
  32   2.0000      -0.631837       -17.1932 
  33   2.0000      -0.626736       -17.0543 
  34   2.0000      -0.598361       -16.2822 
  35   2.0000      -0.572606       -15.5814 
  36   2.0000      -0.555458       -15.1148 
  37   2.0000      -0.549310       -14.9475 
  38   2.0000      -0.544506       -14.8168 
  39   2.0000      -0.539157       -14.6712 
  40   2.0000      -0.502107       -13.6630 
  41   2.0000      -0.483092       -13.1456 
  42   2.0000      -0.478337       -13.0162 
  43   2.0000      -0.460065       -12.5190 
  44   2.0000      -0.453135       -12.3304 
  45   2.0000      -0.445685       -12.1277 
  46   2.0000      -0.435573       -11.8525 
  47   2.0000      -0.433984       -11.8093 
  48   2.0000      -0.432289       -11.7632 
  49   2.0000      -0.427110       -11.6223 
  50   2.0000      -0.410450       -11.1689 
  51   2.0000      -0.407866       -11.0986 
  52   2.0000      -0.405495       -11.0341 
  53   2.0000      -0.398946       -10.8559 
  54   2.0000      -0.394268       -10.7286 
  55   2.0000      -0.381032       -10.3684 
  56   2.0000      -0.380007       -10.3405 
  57   2.0000      -0.362652        -9.8683 
  58   2.0000      -0.357723        -9.7341 
  59   2.0000      -0.348770        -9.4905 
  60   2.0000      -0.343360        -9.3433 
  61   2.0000      -0.339824        -9.2471 
  62   2.0000      -0.332947        -9.0600 
  63   2.0000      -0.331566        -9.0224 
  64   2.0000      -0.325904        -8.8683 
  65   2.0000      -0.264834        -7.2065 
  66   2.0000      -0.261788        -7.1236 
  67   2.0000      -0.255260        -6.9460 
  68   2.0000      -0.245727        -6.6866 
  69   2.0000      -0.228481        -6.2173 
  70   2.0000      -0.207459        -5.6453 
  71   0.0000      -0.025983        -0.7070 
  72   0.0000      -0.011685        -0.3180 
  73   0.0000      -0.004010        -0.1091 
  74   0.0000       0.008479         0.2307 
  75   0.0000       0.019927         0.5422 
  76   0.0000       0.026116         0.7106 
  77   0.0000       0.027968         0.7611 
  78   0.0000       0.030769         0.8373 
  79   0.0000       0.049510         1.3472 
  80   0.0000       0.059657         1.6234 
  81   0.0000       0.066122         1.7993 
*Only the first 10 virtual orbitals were printed.

                    ********************************
                    * MULLIKEN POPULATION ANALYSIS *
                    ********************************

-----------------------
MULLIKEN ATOMIC CHARGES
-----------------------
   0 O :   -0.405099
   1 O :   -0.407414
   2 C :    0.059146
   3 C :    0.166555
   4 C :    0.063108
   5 C :   -0.220907
   6 C :    0.123925
   7 C :   -0.240027
   8 C :    0.209230
   9 C :   -0.220397
  10 C :    0.254299
  11 C :   -0.166870
  12 C :   -0.196110
  13 C :   -0.177051
  14 C :   -0.195409
  15 C :   -0.202864
  16 C :   -0.109718
  17 C :   -0.087474
  18 C :   -0.246100
  19 C :   -0.261934
  20 H :    0.097731
  21 H :    0.127631
  22 H :    0.117962
  23 H :    0.103068
  24 H :    0.108898
  25 H :    0.104603
  26 H :    0.101350
  27 H :    0.097244
  28 H :    0.087336
  29 H :    0.085860
  30 H :    0.102233
  31 H :    0.101782
  32 H :    0.304475
  33 H :    0.305995
  34 H :    0.104769
  35 H :    0.100350
  36 H :    0.109767
  37 H :    0.100057
Sum of atomic charges:   -0.0000000

--------------------------------
MULLIKEN REDUCED ORBITAL CHARGES
--------------------------------
  0 O s       :     3.781887  s :     3.781887
      pz      :     1.574842  p :     4.590531
      px      :     1.518105
      py      :     1.497585
      dz2     :     0.003322  d :     0.030977
      dxz     :     0.007577
      dyz     :     0.004851
      dx2y2   :     0.007089
      dxy     :     0.008138
      f0      :     0.000236  f :     0.001703
      f+1     :     0.000139
      f-1     :     0.000267
      f+2     :     0.000309
      f-2     :     0.000430
      f+3     :     0.000189
      f-3     :     0.000134

  1 O s       :     3.780168  s :     3.780168
      pz      :     1.340872  p :     4.594639
      px      :     1.474786
      py      :     1.778981
      dz2     :     0.011744  d :     0.030890
      dxz     :     0.004335
      dyz     :     0.001498
      dx2y2   :     0.006825
      dxy     :     0.006488
      f0      :     0.000641  f :     0.001717
      f+1     :     0.000090
      f-1     :     0.000082
      f+2     :     0.000172
      f-2     :     0.000135
      f+3     :     0.000285
      f-3     :     0.000313

  2 C s       :     3.272646  s :     3.272646
      pz      :     0.893133  p :     2.544586
      px      :     0.767793
      py      :     0.883660
      dz2     :     0.023291  d :     0.113704
      dxz     :     0.023877
      dyz     :     0.012858
      dx2y2   :     0.026938
      dxy     :     0.026742
      f0      :     0.000913  f :     0.009919
      f+1     :     0.001453
      f-1     :     0.001343
      f+2     :     0.001620
      f-2     :     0.001553
      f+3     :     0.001785
      f-3     :     0.001252

  3 C s       :     3.215916  s :     3.215916
      pz      :     0.818046  p :     2.488102
      px      :     0.739215
      py      :     0.930841
      dz2     :     0.026727  d :     0.119539
      dxz     :     0.033125
      dyz     :     0.022892
      dx2y2   :     0.015841
      dxy     :     0.020954
      f0      :     0.001593  f :     0.009888
      f+1     :     0.002401
      f-1     :     0.001366
      f+2     :     0.001180
      f-2     :     0.001124
      f+3     :     0.001120
      f-3     :     0.001104

  4 C s       :     3.213681  s :     3.213681
      pz      :     0.793028  p :     2.594225
      px      :     0.849115
      py      :     0.952083
      dz2     :     0.033353  d :     0.119073
      dxz     :     0.025434
      dyz     :     0.021081
      dx2y2   :     0.016405
      dxy     :     0.022800
      f0      :     0.001597  f :     0.009912
      f+1     :     0.002403
      f-1     :     0.001422
      f+2     :     0.001214
      f-2     :     0.001082
      f+3     :     0.001245
      f-3     :     0.000950

  5 C s       :     3.265424  s :     3.265424
      pz      :     0.964005  p :     2.864796
      px      :     0.948926
      py      :     0.951865
      dz2     :     0.021623  d :     0.083186
      dxz     :     0.018527
      dyz     :     0.007054
      dx2y2   :     0.016279
      dxy     :     0.019703
      f0      :     0.001200  f :     0.007501
      f+1     :     0.001505
      f-1     :     0.000397
      f+2     :     0.000980
      f-2     :     0.001040
      f+3     :     0.001364
      f-3     :     0.001015

  6 C s       :     3.179242  s :     3.179242
      pz      :     0.870531  p :     2.562147
      px      :     0.795682
      py      :     0.895934
      dz2     :     0.026924  d :     0.124883
      dxz     :     0.028354
      dyz     :     0.011571
      dx2y2   :     0.029065
      dxy     :     0.028969
      f0      :     0.001022  f :     0.009803
      f+1     :     0.001285
      f-1     :     0.001242
      f+2     :     0.001497
      f-2     :     0.001592
      f+3     :     0.001765
      f-3     :     0.001399

  7 C s       :     3.249151  s :     3.249151
      pz      :     1.002256  p :     2.900745
      px      :     0.935777
      py      :     0.962711
      dz2     :     0.008336  d :     0.082606
      dxz     :     0.021900
      dyz     :     0.010804
      dx2y2   :     0.019680
      dxy     :     0.021888
      f0      :     0.000497  f :     0.007526
      f+1     :     0.001281
      f-1     :     0.000762
      f+2     :     0.001492
      f-2     :     0.000803
      f+3     :     0.001557
      f-3     :     0.001134

  8 C s       :     3.076207  s :     3.076207
      pz      :     0.874302  p :     2.534690
      px      :     0.773654
      py      :     0.886733
      dz2     :     0.037090  d :     0.164484
      dxz     :     0.034274
      dyz     :     0.016452
      dx2y2   :     0.042863
      dxy     :     0.033805
      f0      :     0.001315  f :     0.015389
      f+1     :     0.002532
      f-1     :     0.001537
      f+2     :     0.002343
      f-2     :     0.002466
      f+3     :     0.002830
      f-3     :     0.002366

  9 C s       :     3.231744  s :     3.231744
      pz      :     0.950677  p :     2.898129
      px      :     0.973976
      py      :     0.973476
      dz2     :     0.015186  d :     0.083001
      dxz     :     0.027098
      dyz     :     0.016706
      dx2y2   :     0.011080
      dxy     :     0.012931
      f0      :     0.001104  f :     0.007523
      f+1     :     0.001727
      f-1     :     0.001287
      f+2     :     0.000817
      f-2     :     0.000518
      f+3     :     0.001218
      f-3     :     0.000852

 10 C s       :     3.056596  s :     3.056596
      pz      :     0.898906  p :     2.508020
      px      :     0.706919
      py      :     0.902195
      dz2     :     0.034809  d :     0.165610
      dxz     :     0.042486
      dyz     :     0.028422
      dx2y2   :     0.027792
      dxy     :     0.032101
      f0      :     0.001863  f :     0.015476
      f+1     :     0.003833
      f-1     :     0.001827
      f+2     :     0.001613
      f-2     :     0.001673
      f+3     :     0.002559
      f-3     :     0.002108

 11 C s       :     3.231654  s :     3.231654
      pz      :     0.941714  p :     2.846816
      px      :     0.952139
      py      :     0.952962
      dz2     :     0.014298  d :     0.082831
      dxz     :     0.017963
      dyz     :     0.015074
      dx2y2   :     0.016592
      dxy     :     0.018904
      f0      :     0.000641  f :     0.005569
      f+1     :     0.001305
      f-1     :     0.000201
      f+2     :     0.000297
      f-2     :     0.001210
      f+3     :     0.001073
      f-3     :     0.000843

 12 C s       :     3.249945  s :     3.249945
      pz      :     1.008375  p :     2.858306
      px      :     0.933886
      py      :     0.916045
      dz2     :     0.017576  d :     0.082337
      dxz     :     0.006568
      dyz     :     0.013174
      dx2y2   :     0.016147
      dxy     :     0.028872
      f0      :     0.001179  f :     0.005522
      f+1     :     0.000462
      f-1     :     0.000529
      f+2     :     0.000782
      f-2     :     0.000281
      f+3     :     0.001088
      f-3     :     0.001201

 13 C s       :     3.214783  s :     3.214783
      pz      :     0.962081  p :     2.872558
      px      :     0.954290
      py      :     0.956187
      dz2     :     0.021855  d :     0.082213
      dxz     :     0.014383
      dyz     :     0.010512
      dx2y2   :     0.020029
      dxy     :     0.015434
      f0      :     0.000709  f :     0.007498
      f+1     :     0.000985
      f-1     :     0.001257
      f+2     :     0.001261
      f-2     :     0.001211
      f+3     :     0.001179
      f-3     :     0.000895

 14 C s       :     3.227464  s :     3.227464
      pz      :     0.919310  p :     2.890183
      px      :     0.919217
      py      :     1.051657
      dz2     :     0.012166  d :     0.070484
      dxz     :     0.019467
      dyz     :     0.007168
      dx2y2   :     0.014296
      dxy     :     0.017387
      f0      :     0.001151  f :     0.007277
      f+1     :     0.001423
      f-1     :     0.000489
      f+2     :     0.000950
      f-2     :     0.001017
      f+3     :     0.001305
      f-3     :     0.000943

 15 C s       :     3.233676  s :     3.233676
      pz      :     0.998784  p :     2.890732
      px      :     0.896968
      py      :     0.994979
      dz2     :     0.008181  d :     0.071106
      dxz     :     0.018948
      dyz     :     0.009771
      dx2y2   :     0.015766
      dxy     :     0.018439
      f0      :     0.000414  f :     0.007350
      f+1     :     0.001288
      f-1     :     0.000892
      f+2     :     0.001520
      f-2     :     0.000768
      f+3     :     0.001443
      f-3     :     0.001025

 16 C s       :     3.225960  s :     3.225960
      pz      :     0.949383  p :     2.798480
      px      :     0.930524
      py      :     0.918573
      dz2     :     0.003481  d :     0.078227
      dxz     :     0.022396
      dyz     :     0.008236
      dx2y2   :     0.014364
      dxy     :     0.029749
      f0      :     0.001168  f :     0.007051
      f+1     :     0.000574
      f-1     :     0.000479
      f+2     :     0.000907
      f-2     :     0.000743
      f+3     :     0.001122
      f-3     :     0.002059

 17 C s       :     3.211704  s :     3.211704
      pz      :     0.950291  p :     2.790577
      px      :     0.939095
      py      :     0.901190
      dz2     :     0.024302  d :     0.078168
      dxz     :     0.004821
      dyz     :     0.012957
      dx2y2   :     0.011514
      dxy     :     0.024574
      f0      :     0.001248  f :     0.007025
      f+1     :     0.000413
      f-1     :     0.001517
      f+2     :     0.000791
      f-2     :     0.000807
      f+3     :     0.001417
      f-3     :     0.000833

 18 C s       :     3.256700  s :     3.256700
      pz      :     1.010089  p :     2.943398
      px      :     0.929287
      py      :     1.004023
      dz2     :     0.004264  d :     0.041134
      dxz     :     0.010005
      dyz     :     0.001294
      dx2y2   :     0.002889
      dxy     :     0.022683
      f0      :     0.000991  f :     0.004868
      f+1     :     0.000437
      f-1     :     0.000377
      f+2     :     0.000688
      f-2     :     0.000281
      f+3     :     0.001039
      f-3     :     0.001055

 19 C s       :     3.262734  s :     3.262734
      pz      :     0.957138  p :     2.953190
      px      :     1.017991
      py      :     0.978061
      dz2     :     0.019541  d :     0.041153
      dxz     :     0.003676
      dyz     :     0.002822
      dx2y2   :     0.009342
      dxy     :     0.005772
      f0      :     0.001100  f :     0.004858
      f+1     :     0.000335
      f-1     :     0.000961
      f+2     :     0.000459
      f-2     :     0.000561
      f+3     :     0.000836
      f-3     :     0.000605

 20 H s       :     0.879712  s :     0.879712
      pz      :     0.013566  p :     0.022556
      px      :     0.004154
      py      :     0.004836

 21 H s       :     0.849866  s :     0.849866
      pz      :     0.008775  p :     0.022503
      px      :     0.003916
      py      :     0.009812

 22 H s       :     0.859594  s :     0.859594
      pz      :     0.008411  p :     0.022444
      px      :     0.008855
      py      :     0.005178

 23 H s       :     0.875021  s :     0.875021
      pz      :     0.011021  p :     0.021911
      px      :     0.005862
      py      :     0.005029

 24 H s       :     0.869102  s :     0.869102
      pz      :     0.004911  p :     0.021999
      px      :     0.006831
      py      :     0.010257

 25 H s       :     0.873399  s :     0.873399
      pz      :     0.004872  p :     0.021998
      px      :     0.010847
      py      :     0.006279

 26 H s       :     0.876977  s :     0.876977
      pz      :     0.013013  p :     0.021672
      px      :     0.004280
      py      :     0.004379

 27 H s       :     0.880376  s :     0.880376
      pz      :     0.005005  p :     0.022381
      px      :     0.012291
      py      :     0.005085

 28 H s       :     0.890132  s :     0.890132
      pz      :     0.013344  p :     0.022532
      px      :     0.003899
      py      :     0.005290

 29 H s       :     0.891576  s :     0.891576
      pz      :     0.009182  p :     0.022565
      px      :     0.003729
      py      :     0.009653

 30 H s       :     0.875713  s :     0.875713
      pz      :     0.005303  p :     0.022054
      px      :     0.005609
      py      :     0.011142

 31 H s       :     0.876150  s :     0.876150
      pz      :     0.013233  p :     0.022068
      px      :     0.004593
      py      :     0.004242

 32 H s       :     0.648339  s :     0.648339
      pz      :     0.017555  p :     0.047186
      px      :     0.011259
      py      :     0.018372

 33 H s       :     0.646856  s :     0.646856
      pz      :     0.020542  p :     0.047149
      px      :     0.010999
      py      :     0.015608

 34 H s       :     0.873082  s :     0.873082
      pz      :     0.005286  p :     0.022149
      px      :     0.006522
      py      :     0.010341

 35 H s       :     0.877634  s :     0.877634
      pz      :     0.005758  p :     0.022016
      px      :     0.005924
      py      :     0.010334

 36 H s       :     0.867975  s :     0.867975
      pz      :     0.004153  p :     0.022258
      px      :     0.005279
      py      :     0.012826

 37 H s       :     0.877973  s :     0.877973
      pz      :     0.013233  p :     0.021970
      px      :     0.005022
      py      :     0.003715



                     *******************************
                     * LOEWDIN POPULATION ANALYSIS *
                     *******************************

----------------------
LOEWDIN ATOMIC CHARGES
----------------------
   0 O :    0.084735
   1 O :    0.084585
   2 C :   -0.079115
   3 C :   -0.106622
   4 C :   -0.116978
   5 C :   -0.060928
   6 C :   -0.149526
   7 C :   -0.063861
   8 C :   -0.229226
   9 C :   -0.104123
  10 C :   -0.234879
  11 C :   -0.195525
  12 C :   -0.200145
  13 C :   -0.119422
  14 C :   -0.145324
  15 C :   -0.145314
  16 C :   -0.186279
  17 C :   -0.187408
  18 C :   -0.213990
  19 C :   -0.217975
  20 H :    0.152241
  21 H :    0.155104
  22 H :    0.147605
  23 H :    0.147155
  24 H :    0.147915
  25 H :    0.146632
  26 H :    0.145789
  27 H :    0.143564
  28 H :    0.139605
  29 H :    0.139778
  30 H :    0.138759
  31 H :    0.139577
  32 H :    0.184116
  33 H :    0.184762
  34 H :    0.118041
  35 H :    0.119374
  36 H :    0.119445
  37 H :    0.117858

-------------------------------
LOEWDIN REDUCED ORBITAL CHARGES
-------------------------------
  0 O s       :     3.326069  s :     3.326069
      pz      :     1.515803  p :     4.512907
      px      :     1.544273
      py      :     1.452831
      dz2     :     0.008036  d :     0.071412
      dxz     :     0.014943
      dyz     :     0.015201
      dx2y2   :     0.017166
      dxy     :     0.016066
      f0      :     0.000541  f :     0.004877
      f+1     :     0.000681
      f-1     :     0.000364
      f+2     :     0.000625
      f-2     :     0.001085
      f+3     :     0.001007
      f-3     :     0.000575

  1 O s       :     3.324846  s :     3.324846
      pz      :     1.337951  p :     4.514377
      px      :     1.496095
      py      :     1.680331
      dz2     :     0.027024  d :     0.071310
      dxz     :     0.012574
      dyz     :     0.003178
      dx2y2   :     0.014488
      dxy     :     0.014046
      f0      :     0.001710  f :     0.004882
      f+1     :     0.000524
      f-1     :     0.000103
      f+2     :     0.000526
      f-2     :     0.000402
      f+3     :     0.000815
      f-3     :     0.000801

  2 C s       :     2.695567  s :     2.695567
      pz      :     0.926611  p :     2.839022
      px      :     0.974010
      py      :     0.938402
      dz2     :     0.083432  d :     0.489348
      dxz     :     0.107667
      dyz     :     0.067067
      dx2y2   :     0.115848
      dxy     :     0.115335
      f0      :     0.005596  f :     0.055177
      f+1     :     0.008916
      f-1     :     0.005183
      f+2     :     0.007135
      f-2     :     0.009921
      f+3     :     0.010932
      f-3     :     0.007494

  3 C s       :     2.694772  s :     2.694772
      pz      :     1.033183  p :     2.850766
      px      :     0.951639
      py      :     0.865944
      dz2     :     0.135573  d :     0.504219
      dxz     :     0.154595
      dyz     :     0.080377
      dx2y2   :     0.064971
      dxy     :     0.068703
      f0      :     0.010723  f :     0.056866
      f+1     :     0.015479
      f-1     :     0.005984
      f+2     :     0.007499
      f-2     :     0.007173
      f+3     :     0.004953
      f-3     :     0.005055

  4 C s       :     2.707146  s :     2.707146
      pz      :     0.991321  p :     2.858784
      px      :     0.988561
      py      :     0.878903
      dz2     :     0.131571  d :     0.495021
      dxz     :     0.150105
      dyz     :     0.076257
      dx2y2   :     0.064851
      dxy     :     0.072238
      f0      :     0.011069  f :     0.056026
      f+1     :     0.014118
      f-1     :     0.006928
      f+2     :     0.006503
      f-2     :     0.006738
      f+3     :     0.005298
      f-3     :     0.005373

  5 C s       :     2.748519  s :     2.748519
      pz      :     0.986154  p :     2.885274
      px      :     1.009144
      py      :     0.889976
      dz2     :     0.113728  d :     0.384516
      dxz     :     0.100798
      dyz     :     0.025286
      dx2y2   :     0.070787
      dxy     :     0.073916
      f0      :     0.006447  f :     0.042619
      f+1     :     0.010065
      f-1     :     0.001959
      f+2     :     0.006911
      f-2     :     0.007067
      f+3     :     0.005059
      f-3     :     0.005112

  6 C s       :     2.709370  s :     2.709370
      pz      :     0.935118  p :     2.869611
      px      :     0.998669
      py      :     0.935823
      dz2     :     0.087776  d :     0.513224
      dxz     :     0.119735
      dyz     :     0.063366
      dx2y2   :     0.118081
      dxy     :     0.124266
      f0      :     0.006089  f :     0.057321
      f+1     :     0.008678
      f-1     :     0.005482
      f+2     :     0.007297
      f-2     :     0.009863
      f+3     :     0.011672
      f-3     :     0.008240

  7 C s       :     2.747317  s :     2.747317
      pz      :     0.928500  p :     2.890710
      px      :     1.027127
      py      :     0.935083
      dz2     :     0.039240  d :     0.383377
      dxz     :     0.092348
      dyz     :     0.050609
      dx2y2   :     0.106483
      dxy     :     0.094698
      f0      :     0.003343  f :     0.042457
      f+1     :     0.008554
      f-1     :     0.001993
      f+2     :     0.005455
      f-2     :     0.006552
      f+3     :     0.010112
      f-3     :     0.006448

  8 C s       :     2.711577  s :     2.711577
      pz      :     0.910718  p :     2.754960
      px      :     0.929209
      py      :     0.915034
      dz2     :     0.112976  d :     0.667966
      dxz     :     0.161671
      dyz     :     0.073641
      dx2y2   :     0.155268
      dxy     :     0.164409
      f0      :     0.008626  f :     0.094723
      f+1     :     0.017649
      f-1     :     0.006539
      f+2     :     0.011686
      f-2     :     0.016011
      f+3     :     0.019580
      f-3     :     0.014631

  9 C s       :     2.754340  s :     2.754340
      pz      :     1.011088  p :     2.915756
      px      :     1.003585
      py      :     0.901082
      dz2     :     0.082899  d :     0.390456
      dxz     :     0.150765
      dyz     :     0.060736
      dx2y2   :     0.048438
      dxy     :     0.047618
      f0      :     0.008687  f :     0.043572
      f+1     :     0.010874
      f-1     :     0.006638
      f+2     :     0.004361
      f-2     :     0.003327
      f+3     :     0.005010
      f-3     :     0.004674

 10 C s       :     2.711299  s :     2.711299
      pz      :     1.043472  p :     2.755303
      px      :     0.855664
      py      :     0.856167
      dz2     :     0.157511  d :     0.672845
      dxz     :     0.176440
      dyz     :     0.092160
      dx2y2   :     0.120410
      dxy     :     0.126324
      f0      :     0.013520  f :     0.095433
      f+1     :     0.023463
      f-1     :     0.008475
      f+2     :     0.011468
      f-2     :     0.011764
      f+3     :     0.013930
      f-3     :     0.012813

 11 C s       :     2.761135  s :     2.761135
      pz      :     0.998491  p :     3.018502
      px      :     0.997092
      py      :     1.022920
      dz2     :     0.070569  d :     0.377379
      dxz     :     0.085740
      dyz     :     0.056128
      dx2y2   :     0.065343
      dxy     :     0.099600
      f0      :     0.004334  f :     0.038508
      f+1     :     0.006925
      f-1     :     0.004044
      f+2     :     0.004516
      f-2     :     0.005938
      f+3     :     0.006848
      f-3     :     0.005903

 12 C s       :     2.763441  s :     2.763441
      pz      :     1.015152  p :     3.017923
      px      :     0.995807
      py      :     1.006963
      dz2     :     0.097127  d :     0.380409
      dxz     :     0.037989
      dyz     :     0.059256
      dx2y2   :     0.082674
      dxy     :     0.103364
      f0      :     0.005607  f :     0.038373
      f+1     :     0.002846
      f-1     :     0.003811
      f+2     :     0.007636
      f-2     :     0.005259
      f+3     :     0.006401
      f-3     :     0.006812

 13 C s       :     2.756370  s :     2.756370
      pz      :     0.963408  p :     2.926040
      px      :     0.995569
      py      :     0.967063
      dz2     :     0.079830  d :     0.393245
      dxz     :     0.078508
      dyz     :     0.057249
      dx2y2   :     0.093567
      dxy     :     0.084091
      f0      :     0.004621  f :     0.043767
      f+1     :     0.006365
      f-1     :     0.005125
      f+2     :     0.005887
      f-2     :     0.008355
      f+3     :     0.007784
      f-3     :     0.005631

 14 C s       :     2.758721  s :     2.758721
      pz      :     0.975093  p :     2.970072
      px      :     1.040760
      py      :     0.954219
      dz2     :     0.102089  d :     0.373361
      dxz     :     0.107026
      dyz     :     0.026038
      dx2y2   :     0.066897
      dxy     :     0.071311
      f0      :     0.006084  f :     0.043170
      f+1     :     0.010161
      f-1     :     0.002053
      f+2     :     0.007239
      f-2     :     0.007270
      f+3     :     0.005151
      f-3     :     0.005212

 15 C s       :     2.759088  s :     2.759088
      pz      :     0.960420  p :     2.968934
      px      :     1.045324
      py      :     0.963190
      dz2     :     0.039842  d :     0.374185
      dxz     :     0.090027
      dyz     :     0.051770
      dx2y2   :     0.103086
      dxy     :     0.089459
      f0      :     0.003444  f :     0.043107
      f+1     :     0.008681
      f-1     :     0.002342
      f+2     :     0.005689
      f-2     :     0.006482
      f+3     :     0.009904
      f-3     :     0.006565

 16 C s       :     2.795427  s :     2.795427
      pz      :     0.879593  p :     2.954055
      px      :     1.093725
      py      :     0.980738
      dz2     :     0.023017  d :     0.395057
      dxz     :     0.075859
      dyz     :     0.032925
      dx2y2   :     0.108684
      dxy     :     0.154572
      f0      :     0.003720  f :     0.041740
      f+1     :     0.004803
      f-1     :     0.002331
      f+2     :     0.005390
      f-2     :     0.003891
      f+3     :     0.007862
      f-3     :     0.013742

 17 C s       :     2.796248  s :     2.796248
      pz      :     1.040676  p :     2.953118
      px      :     0.865463
      py      :     1.046979
      dz2     :     0.125236  d :     0.396211
      dxz     :     0.015614
      dyz     :     0.107548
      dx2y2   :     0.067607
      dxy     :     0.080207
      f0      :     0.007067  f :     0.041831
      f+1     :     0.001098
      f-1     :     0.010976
      f+2     :     0.007437
      f-2     :     0.005196
      f+3     :     0.004855
      f-3     :     0.005203

 18 C s       :     2.854701  s :     2.854701
      pz      :     0.969729  p :     3.091412
      px      :     1.105589
      py      :     1.016094
      dz2     :     0.016418  d :     0.239459
      dxz     :     0.036063
      dyz     :     0.005799
      dx2y2   :     0.050608
      dxy     :     0.130572
      f0      :     0.002950  f :     0.028418
      f+1     :     0.004061
      f-1     :     0.001459
      f+2     :     0.004488
      f-2     :     0.001068
      f+3     :     0.006311
      f-3     :     0.008081

 19 C s       :     2.855415  s :     2.855415
      pz      :     1.062773  p :     3.094593
      px      :     0.966411
      py      :     1.065409
      dz2     :     0.108627  d :     0.239681
      dxz     :     0.012890
      dyz     :     0.054042
      dx2y2   :     0.047904
      dxy     :     0.016218
      f0      :     0.005180  f :     0.028286
      f+1     :     0.000573
      f-1     :     0.007880
      f+2     :     0.005597
      f-2     :     0.003821
      f+3     :     0.001669
      f-3     :     0.003566

 20 H s       :     0.788658  s :     0.788658
      pz      :     0.033761  p :     0.059101
      px      :     0.011782
      py      :     0.013558

 21 H s       :     0.785665  s :     0.785665
      pz      :     0.023068  p :     0.059232
      px      :     0.011035
      py      :     0.025128

 22 H s       :     0.793450  s :     0.793450
      pz      :     0.021758  p :     0.058944
      px      :     0.022727
      py      :     0.014459

 23 H s       :     0.795383  s :     0.795383
      pz      :     0.027502  p :     0.057461
      px      :     0.016404
      py      :     0.013555

 24 H s       :     0.793667  s :     0.793667
      pz      :     0.014193  p :     0.058418
      px      :     0.018778
      py      :     0.025446

 25 H s       :     0.796058  s :     0.796058
      pz      :     0.014667  p :     0.057309
      px      :     0.026232
      py      :     0.016411

 26 H s       :     0.796725  s :     0.796725
      pz      :     0.032958  p :     0.057487
      px      :     0.012317
      py      :     0.012212

 27 H s       :     0.798096  s :     0.798096
      pz      :     0.013944  p :     0.058340
      px      :     0.030250
      py      :     0.014146

 28 H s       :     0.801685  s :     0.801685
      pz      :     0.032001  p :     0.058710
      px      :     0.011704
      py      :     0.015005

 29 H s       :     0.801555  s :     0.801555
      pz      :     0.023202  p :     0.058667
      px      :     0.011206
      py      :     0.024260

 30 H s       :     0.802904  s :     0.802904
      pz      :     0.014487  p :     0.058337
      px      :     0.015171
      py      :     0.028680

 31 H s       :     0.802117  s :     0.802117
      pz      :     0.032740  p :     0.058305
      px      :     0.012788
      py      :     0.012777

 32 H s       :     0.663579  s :     0.663579
      pz      :     0.054019  p :     0.152304
      px      :     0.039325
      py      :     0.058961

 33 H s       :     0.663137  s :     0.663137
      pz      :     0.080566  p :     0.152101
      px      :     0.030382
      py      :     0.041153

 34 H s       :     0.820524  s :     0.820524
      pz      :     0.014950  p :     0.061434
      px      :     0.017218
      py      :     0.029266

 35 H s       :     0.819374  s :     0.819374
      pz      :     0.016136  p :     0.061252
      px      :     0.015765
      py      :     0.029351

 36 H s       :     0.818927  s :     0.818927
      pz      :     0.014155  p :     0.061628
      px      :     0.014560
      py      :     0.032913

 37 H s       :     0.820917  s :     0.820917
      pz      :     0.034246  p :     0.061224
      px      :     0.014389
      py      :     0.012589



                      *****************************
                      * MAYER POPULATION ANALYSIS *
                      *****************************

  NA   - Mulliken gross atomic population
  ZA   - Total nuclear charge
  QA   - Mulliken gross atomic charge
  VA   - Mayer's total valence
  BVA  - Mayer's bonded valence
  FA   - Mayer's free valence

  ATOM       NA         ZA         QA         VA         BVA        FA
  0 O      8.4051     8.0000    -0.4051     2.0718     2.0718     0.0000
  1 O      8.4074     8.0000    -0.4074     2.0784     2.0784    -0.0000
  2 C      5.9409     6.0000     0.0591     3.6314     3.6314    -0.0000
  3 C      5.8334     6.0000     0.1666     3.6694     3.6694    -0.0000
  4 C      5.9369     6.0000     0.0631     3.7412     3.7412    -0.0000
  5 C      6.2209     6.0000    -0.2209     3.9583     3.9583    -0.0000
  6 C      5.8761     6.0000     0.1239     3.7439     3.7439     0.0000
  7 C      6.2400     6.0000    -0.2400     3.9028     3.9028    -0.0000
  8 C      5.7908     6.0000     0.2092     3.9484     3.9484     0.0000
  9 C      6.2204     6.0000    -0.2204     4.0057     4.0057     0.0000
 10 C      5.7457     6.0000     0.2543     3.9286     3.9286     0.0000
 11 C      6.1669     6.0000    -0.1669     3.8709     3.8709    -0.0000
 12 C      6.1961     6.0000    -0.1961     3.8751     3.8751    -0.0000
 13 C      6.1771     6.0000    -0.1771     3.9847     3.9847    -0.0000
 14 C      6.1954     6.0000    -0.1954     3.8551     3.8551     0.0000
 15 C      6.2029     6.0000    -0.2029     3.8765     3.8765    -0.0000
 16 C      6.1097     6.0000    -0.1097     3.8611     3.8611     0.0000
 17 C      6.0875     6.0000    -0.0875     3.8381     3.8381     0.0000
 18 C      6.2461     6.0000    -0.2461     3.9413     3.9413     0.0000
 19 C      6.2619     6.0000    -0.2619     3.9411     3.9411     0.0000
 20 H      0.9023     1.0000     0.0977     0.9942     0.9942    -0.0000
 21 H      0.8724     1.0000     0.1276     0.9802     0.9802     0.0000
 22 H      0.8820     1.0000     0.1180     0.9756     0.9756     0.0000
 23 H      0.8969     1.0000     0.1031     0.9630     0.9630    -0.0000
 24 H      0.8911     1.0000     0.1089     0.9817     0.9817    -0.0000
 25 H      0.8954     1.0000     0.1046     0.9681     0.9681     0.0000
 26 H      0.8986     1.0000     0.1014     0.9699     0.9699    -0.0000
 27 H      0.9028     1.0000     0.0972     0.9760     0.9760    -0.0000
 28 H      0.9127     1.0000     0.0873     0.9836     0.9836    -0.0000
 29 H      0.9141     1.0000     0.0859     0.9845     0.9845    -0.0000
 30 H      0.8978     1.0000     0.1022     0.9755     0.9755    -0.0000
 31 H      0.8982     1.0000     0.1018     0.9750     0.9750     0.0000
 32 H      0.6955     1.0000     0.3045     0.9271     0.9271    -0.0000
 33 H      0.6940     1.0000     0.3060     0.9258     0.9258    -0.0000
 34 H      0.8952     1.0000     0.1048     0.9729     0.9729     0.0000
 35 H      0.8996     1.0000     0.1004     0.9788     0.9788    -0.0000
 36 H      0.8902     1.0000     0.1098     0.9745     0.9745     0.0000
 37 H      0.8999     1.0000     0.1001     0.9779     0.9779     0.0000

  Mayer bond orders larger than 0.100000
B(  0-O ,  8-C ) :   1.1558 B(  0-O , 32-H ) :   0.8873 B(  1-O , 10-C ) :   1.1401 
B(  1-O , 33-H ) :   0.8887 B(  2-C ,  3-C ) :   0.8835 B(  2-C ,  7-C ) :   1.3831 
B(  2-C ,  8-C ) :   1.3215 B(  3-C ,  5-C ) :   1.3546 B(  3-C ,  9-C ) :   1.3835 
B(  4-C ,  5-C ) :   1.4252 B(  4-C , 10-C ) :   1.3328 B(  4-C , 11-C ) :   0.9117 
B(  5-C , 20-H ) :   0.9718 B(  6-C ,  7-C ) :   1.3835 B(  6-C , 12-C ) :   0.9063 
B(  6-C , 13-C ) :   1.3893 B(  7-C , 21-H ) :   0.9585 B(  8-C , 15-C ) :   1.3786 
B(  9-C , 14-C ) :   1.4249 B(  9-C , 22-H ) :   0.9485 B( 10-C , 14-C ) :   1.3577 
B( 11-C , 16-C ) :   0.9711 B( 11-C , 23-H ) :   0.9712 B( 11-C , 24-H ) :   0.9614 
B( 12-C , 17-C ) :   0.9686 B( 12-C , 25-H ) :   0.9734 B( 12-C , 26-H ) :   0.9643 
B( 13-C , 15-C ) :   1.4096 B( 13-C , 27-H ) :   0.9621 B( 14-C , 28-H ) :   0.9599 
B( 15-C , 29-H ) :   0.9618 B( 16-C , 18-C ) :   1.9390 B( 16-C , 30-H ) :   0.9548 
B( 17-C , 19-C ) :   1.9275 B( 17-C , 31-H ) :   0.9539 B( 18-C , 34-H ) :   0.9648 
B( 18-C , 35-H ) :   0.9597 B( 19-C , 36-H ) :   0.9653 B( 19-C , 37-H ) :   0.9636 


-------
TIMINGS
-------

Total SCF time: 0 days 0 hours 0 min 39 sec 

Total time                  ....      39.288 sec
Sum of individual times     ....      39.321 sec  (100.1%)

SCF preparation             ....       0.936 sec  (  2.4%)
Fock matrix formation       ....      35.340 sec  ( 90.0%)
  Startup                   ....       0.074 sec  (  0.2% of F)
  Split-RI-J                ....       3.608 sec  ( 10.2% of F)
  Chain of spheres X        ....      27.222 sec  ( 77.0% of F)
  XC integration            ....       4.058 sec  ( 11.5% of F)
    XC Preparation          ....       0.000 sec  (  0.0% of XC)
    Basis function eval.    ....       0.944 sec  ( 23.3% of XC)
    Density eval.           ....       1.053 sec  ( 26.0% of XC)
    XC-Functional eval.     ....       0.101 sec  (  2.5% of XC)
    XC-Potential eval.      ....       1.378 sec  ( 33.9% of XC)
Diagonalization             ....       0.000 sec  (  0.0%)
Density matrix formation    ....       0.244 sec  (  0.6%)
Total Energy calculation    ....       0.132 sec  (  0.3%)
Population analysis         ....       0.114 sec  (  0.3%)
Orbital Transformation      ....       0.320 sec  (  0.8%)
Orbital Orthonormalization  ....       0.000 sec  (  0.0%)
DIIS solution               ....       1.404 sec  (  3.6%)
SOSCF solution              ....       0.831 sec  (  2.1%)
Finished LeanSCF after  39.3 sec

Maximum memory used throughout the entire LEANSCF-calculation: 103.2 MB

-------------------------   --------------------
FINAL SINGLE POINT ENERGY      -846.962452260103
-------------------------   --------------------



           ************************************************************
           *        Program running with 20 parallel MPI-processes    *
           *              working on a common directory               *
           ************************************************************

------------------------------------------------------------------------------
                              ORCA PROPERTY CALCULATIONS
------------------------------------------------------------------------------

GBWName                                 ... honokiol.gbw
Number of atoms                         ...     38
Number of basis functions               ...    728
Max core memory                         ...   5000 MB

Electric properties:
Dipole moment                           ... YES
Quadrupole moment                       ...  NO
Static polarizability (Dipole/Dipole)   ...  NO
Static polarizability (Dipole/Quad.)    ...  NO
Static polarizability (Quad./Quad.)     ...  NO
Static polarizability (Velocity)        ...  NO

Atomic electric properties:
Dipole moment                           ...  NO
Quadrupole moment                       ...  NO
Static polarizability                   ...  NO

Choice of electric origin               ... Center of mass
Position of electric origin             ...    -0.070253    -0.171017    -0.169309

General magnetic properties:
Magnetizability                         ...  NO

EPR properties:
g-Tensor (aka g-matrix)                 ...  NO
Zero-Field splitting spin-orbit         ...  NO
Zero-field splitting spin-spin          ...  NO
Hyperfine couplings                     ...  NO (   0 nuclei)
Quadrupole couplings                    ...  NO (   0 nuclei)
Contact density                         ...  NO (   0 nuclei)

NMR properties:
Chemical shifts                         ...  NO (   0 nuclei)
Spin-rotation constants                 ...  NO (   0 nuclei)
Spin-spin couplings                     ...  NO (   0 nuclei,    0 pairs)

Choice of magnetic origin               ... GIAO
Position of magnetic origin             ...     0.000000     0.000000     0.000000

Properties with geometric perturbations:
SCF Hessian                             ...  NO
IR spectrum                             ...  NO
VCD spectrum                            ...  NO
X-ray spectroscopy properties:
SCF XES/XAS/RIXS spectra                ...  NO


-------------
DIPOLE MOMENT
-------------

Method             : SCF
Type of density    : Electron Density
Multiplicity       :   1
Irrep              :   0
Energy             :  -846.9624522601025092 Eh
Relativity type    : 
Basis              : AO
                                X                 Y                 Z
Electronic contribution:     -2.405864436       4.454543314       0.296892421
Nuclear contribution   :      2.838977935      -4.105754795      -0.114510112
                        -----------------------------------------
Total Dipole Moment    :      0.433113499       0.348788519       0.182382310
                        -----------------------------------------
Magnitude (a.u.)       :      0.585238448
Magnitude (Debye)      :      1.487557916



--------------------
Rotational spectrum 
--------------------
 
Rotational constants in cm-1:             0.021141             0.005463             0.004679 
Rotational constants in MHz :           633.799005           163.763763           140.282294 

Dipole components along the rotational axes: 
x,y,z [a.u.] :     0.439820     0.149296     0.356053 
x,y,z [Debye]:     1.117932     0.379481     0.905014 

 

Dipole moment calculation done in   0.0 sec 

Maximum memory used throughout the entire PROP-calculation: 57.0 MB

--------------------------------
SUGGESTED CITATIONS FOR THIS RUN
--------------------------------

Below you find a list of papers that are relevant to this ORCA run
We neither can nor want to force you to cite these papers, but we appreciate if you do
You receive ORCA, which is the product of decades of hard work by many enthusiastic individuals, for free
The only thing we kindly ask in return is that you cite our papers,
We deeply appreciate it, if you show your appreciation for ORCA by not just citing the generic ORCA reference.

Please note that relegating all ORCA citations to the supporting information does *not* help us.
SI sections are not indexed - citations you put there will not count into any citation statistics
But we need these citations in order to attract the funding resources that allow us to do what we are doing

Therefore, if you are a happy ORCA user, please consider citing a few of the papers listed below in the main body of your paper

In addition to the list printed below, the program has created the file honokiol.bibtex that contains the list in bibtex format
You can import this file easily into all common literature databanks and citation aid programs


List of essential papers. We consider these as the minimum necessary citations

  1. Neese,F.
     Software update: the ORCA program system, version 5.0
     WIRES Comput. Molec. Sci., 2022 12(1)e1606
     doi.org/10.1002/wcms.1606

List of papers to cite with high priority. The work reported in these papers was absolutely
necessary for this run to complete.
Our perspective: the developers of density functionals and basis sets usually get cited in chemistry papers
Good! But without the algorithms to do something with them, the functionals or basis sets would not do anything.
Hence, in our opinion, the algorithm design and method developments papers are equally worthy of getting cited

  1. Neese,F.
     An improvement of the resolution of the identity approximation for the formation of the Coulomb matrix
     J. Comp. Chem., 2003 24(14)1740-1747
     doi.org/10.1002/jcc.10318
  2. Neese,F.; Wennmohs,F.; Hansen,A.; Becker,U.
     Efficient, approximate and parallel Hartree-Fock and hybrid DFT calculations. A 'chain-of-spheres' algorithm for the Hartree-Fock exchange
     Chem. Phys., 2009 356(1-3)98-109
     doi.org/10.1016/j.chemphys.2008.10.036
  3. Helmich-Paris,B.; de Souza,B.; Neese,F.; Izsák,R.
     An improved chain of spheres for exchange algorithm
     J. Chem. Phys., 2021 155 104109
     doi.org/doi: 10.1063/5.0058766.
  4. Neese,F.
     The SHARK Integral Generation and Digestion System
     J. Comp. Chem., 2022  1-16
     doi.org/10.1002/jcc.26942

List of suggested additional citations. These are papers that are important in the 'surrounding' of 
of this run, or papers that preceded the highly important papers. If you like your results we are grateful for a citation.

  1. Izsak,R.; Neese,F.
     An overlap fitted chain of spheres exchange method
     J. Chem. Phys., 2011 135 144105
     doi.org/10.1063/1.3646921
  2. Izsak,R.; Hansen,A.; Neese,F.
     The resolution of identity and chain of spheres approximations for the LPNO-CCSD singles Fock term
     Molec. Phys., 2012 110 2413-2417
     doi.org/10.1080/00268976.2012.687466
  3. Neese,F.
     The ORCA program system
     WIRES Comput. Molec. Sci., 2012 2(1)73-78
     doi.org/10.1002/wcms.81
  4. Izsak,R.; Neese,F.; Klopper,W.
     Robust fitting techniques in the chain of spheres approximation to the Fock exchange: The role of the complementary space
     J. Chem. Phys., 2013 139 
     doi.org/10.1063/1.4819264
  5. Neese,F.
     Software update: the ORCA program system, version 4.0
     WIRES Comput. Molec. Sci., 2018 8(1)1-6
     doi.org/10.1002/wcms.1327
  6. Neese,F.; Wennmohs,F.; Becker,U.; Riplinger,C.
     The ORCA quantum chemistry program package
     J. Chem. Phys., 2020 152 Art. No. L224108
     doi.org/10.1063/5.0004608

List of optional additional citations

  1. Neese,F.
     Approximate second-order SCF convergence for spin unrestricted wavefunctions
     Chem. Phys. Lett., 2000 325(1-3)93-98
     doi.org/10.1016/s0009-2614(00)00662-x

Timings for individual modules:

Sum of individual times          ...       45.380 sec (=   0.756 min)
Startup calculation              ...        3.180 sec (=   0.053 min)   7.0 %
SCF iterations                   ...       41.220 sec (=   0.687 min)  90.8 %
Property calculations            ...        0.979 sec (=   0.016 min)   2.2 %
                             ****ORCA TERMINATED NORMALLY****
TOTAL RUN TIME: 0 days 0 hours 0 minutes 46 seconds 236 msec
