
                                 *****************
                                 * O   R   C   A *
                                 *****************

                                            #,                                       
                                            ###                                      
                                            ####                                     
                                            #####                                    
                                            ######                                   
                                           ########,                                 
                                     ,,################,,,,,                         
                               ,,#################################,,                 
                          ,,##########################################,,             
                       ,#########################################, ''#####,          
                    ,#############################################,,   '####,        
                  ,##################################################,,,,####,       
                ,###########''''           ''''###############################       
              ,#####''   ,,,,##########,,,,          '''####'''          '####       
            ,##' ,,,,###########################,,,                        '##       
           ' ,,###''''                  '''############,,,                           
         ,,##''                                '''############,,,,        ,,,,,,###''
      ,#''                                            '''#######################'''  
     '                                                          ''''####''''         
             ,#######,   #######,   ,#######,      ##                                
            ,#'     '#,  ##    ##  ,#'     '#,    #''#        ,####,   ,####,        
            ##       ##  ##   ,#'  ##            #'  '#       #'       #'  '#        
            ##       ##  #######   ##           ,######,      #####,   #    #        
            '#,     ,#'  ##    ##  '#,     ,#' ,#      #,     #,   #   #,  ,#        
             '#######'   ##     ##  '#######'  #'      '#     '####' # '####'        



                #########################################################
                #                        -***-                          #
                #          Department of theory and spectroscopy        #
                #                                                       #
                #                      Frank Neese                      #
                #                                                       #
                #     Directorship, Architecture, Infrastructure        #
                #                    SHARK, DRIVERS                     #
                #        Core code/Algorithms in most modules           #
                #                                                       #
                #        Max Planck Institute fuer Kohlenforschung      #
                #                Kaiser Wilhelm Platz 1                 #
                #                 D-45470 Muelheim/Ruhr                 #
                #                      Germany                          #
                #                                                       #
                #                  All rights reserved                  #
                #                        -***-                          #
                #########################################################


                         Program Version 6.0.1  -  RELEASE   -


 With contributions from (in alphabetic order):
[Max-Planck-Institut fuer Kohlenforschung]                               
  Daniel Aravena         : Magnetic Suceptibility                        
  Michael Atanasov       : Ab Initio Ligand Field Theory (pilot matlab implementation)
  Alexander A. Auer      : GIAO ZORA, VPT2 properties, NMR spectrum      
  Ute Becker             : All parallelization in ORCA, NUMFREQ, NUMCALC 
  Giovanni Bistoni       : ED, misc. LED, open-shell LED, HFLD           
  Martin Brehm           : Molecular dynamics                            
  Dmytro Bykov           : pre 5.0 version of the SCF Hessian            
  Marcos Casanova-Páez   : Triplet and SCS-CIS(D). UHF-(DLPNO)-IP/EA/STEOM-CCSD. UHF-CVS-IP/STEOM-CCSD   
  Vijay G. Chilkuri      : MRCI spin determinant printing, contributions to CSF-ICE 
  Pauline Colinet        : FMM embedding                                 
  Dipayan Datta          : RHF DLPNO-CCSD density                        
  Achintya Kumar Dutta   : EOM-CC, STEOM-CC                              
  Nicolas Foglia         : Exact transition moments, OPA infrastructure, MCD improvements    
  Dmitry Ganyushin       : Spin-Orbit,Spin-Spin,Magnetic field MRCI      
  Miquel Garcia-Rates    : C-PCM and meta-GGA Hessian, CCSD/C-PCM, Gaussian charge scheme 
  Tiago L. C. Gouveia    : GS-ROHF, GS-ROCIS                             
  Yang Guo               : DLPNO-NEVPT2, F12-NEVPT2, CIM, IAO-localization        
  Andreas Hansen         : Spin unrestricted coupled pair/coupled cluster methods 
  Ingolf Harden          : AUTO-CI MPn and infrastructure                
  Benjamin Helmich-Paris : MC-RPA, TRAH-(SCF,CASSCF), AVAS, COSX integrals, SCF dyn. polar. 
  Lee Huntington         : MR-EOM, pCC                                   
  Robert Izsak           : Overlap fitted RIJCOSX, COSX-SCS-MP3, EOM     
  Riya Kayal             : Wick's Theorem for AUTO-CI, AUTO-CI UHF-CCSDT 
  Emily Kempfer          : AUTO-CI, RHF CISDT and CCSDT                  
  Christian Kollmar      : KDIIS, OOCD, Brueckner-CCSD(T), CCSD density, CASPT2, CASPT2-K, improved NEVPT2 
  Axel Koslowski         : Symmetry handling                             
  Simone Kossmann        : meta-GGA functionals, TD-DFT gradient, OOMP2, (MP2 Hessian; deprecated post 5.0) 
  Lucas Lang             : DCDCAS                                        
  Marvin Lechner         : AUTO-CI (C++ implementation), FIC-MRCC        
  Spencer Leger          : CASSCF response                               
  Dagmar Lenk            : GEPOL surface, SMD, ORCA-2-JSON               
  Dimitrios Liakos       : Extrapolation schemes; Compound Job, initial MDCI parallelization 
  Dimitrios Manganas     : Further ROCIS development; embedding schemes. LFT, Crystal Embedding 
  Dimitrios Pantazis     : SARC Basis sets                               
  Anastasios Papadopoulos: AUTO-CI, single reference methods and gradients 
  Taras Petrenko         : pre 6.0 DFT Hessian and TD-DFT gradient, (ASA, deprecated), ECA, 1-Electron XAS/XES, NRVS 
  Peter Pinski           : DLPNO-MP2, DLPNO-MP2 Gradient                 
  Christoph Reimann      : Effective Core Potentials                     
  Marius Retegan         : Local ZFS, SOC                                
  Christoph Riplinger    : Optimizer, TS searches, QM/MM, DLPNO-CCSD(T), (RO)-DLPNO pert. Triples 
  Michael Roemelt        : Original ROCIS implementation                 
  Masaaki Saitow         : Open-shell DLPNO-CCSD energy and density      
  Barbara Sandhoefer     : DKH picture change effects                    
  Kantharuban Sivalingam : CASSCF convergence/infrastructure, NEVPT2 and variants, FIC-MRCI 
  Bernardo de Souza      : ESD, SOC TD-DFT                               
  Georgi L. Stoychev     : AutoAux, RI-MP2 NMR, DLPNO-MP2 response, X2C  
  Van Anh Tran           : RI-MP2 g-tensors                              
  Willem Van den Heuvel  : Paramagnetic NMR                              
  Zikuan Wang            : NOTCH, Electric field optimization            
  Frank Wennmohs         : Technical directorship and infrastructure     
  Hang Xu                : AUTO-CI-Response properties                   
                                                                         
[FACCTs GmbH]                                                            
  Markus Bursch, Miquel Garcia-Rates, Christoph Riplinger, Bernardo de Souza, Georgi L. Stoychev 
                                                                 
  APM, Basis sets (HGBS, AHGBS, def-TZVP (Ac-Lr), def2-XVPD (La-Lu)), CI-OPT, improved COSX, DLPNO-Multilevel,           
  DOCKER, DRACO, updates on ESD, GOAT, IRC, LR-CPCM, MBIS, meta-GGA TD-DFT gradient, ML-optimized integration grids, 
  MM, NACMEs, nearIR, NEB, NEB-TS, NL-DFT gradient (VV10), 2- and 3-layer-ONIOM, interface openCOSMO-RS, QMMM,   
  Crystal-QMMM, SF, symmetry and pop. for TD-DFT, r2SCAN hybrids, SOLVATOR                                   
                                                                         
[Other institutions]                                                     
  V. Asgeirsson          : NEB                                           
  Christoph Bannwarth    : sTDA-DFT, sTD-DFT, PBEh-3c, B97-3c, D3        
  Sebastian Ehlert       : rSCAN, r2SCAN, r2SCAN-3c, D4, dhf basis sets  
  Marvin Friede          : D4 for Fr, Ra, Ac-Lr                          
  Lars Goerigk           : TD-DFT with DH, B97 family of functionals     
  Stefan Grimme          : VdW corrections, initial TS optimization, DFT functionals, gCP, sTDA/sTD-DF 
  Waldemar Hujo          : DFT-NL                                        
  H. Jonsson             : NEB                                           
  Holger Kruse           : gCP                                           
  Marcel Mueller         : wB97X-3c, vDZP basis set                      
  Hagen Neugebauer       : wr2SCAN                                       
  Tobias Risthaus        : range-separated hybrid DFT                    
  Lukas Wittmann         : regularized MP2, r2SCAN double-hybrids, wr2SCAN        
                                                                         
We gratefully acknowledge several colleagues who have allowed us to      
interface, adapt or use parts of their codes:                            
  Ed Valeev, F. Pavosevic, A. Kumar             : LibInt (2-el integral package), F12 methods 
  Garnet Chan, S. Sharma, J. Yang, R. Olivares  : DMRG                   
  Ulf Ekstrom                                   : XCFun DFT Library      
  Mihaly Kallay                                 : mrcc  (arbitrary order and MRCC methods)
  Frank Weinhold                                : gennbo (NPA and NBO analysis)           
  Simon Mueller                                 : openCOSMO-RS                            
  Christopher J. Cramer and Donald G. Truhlar   : smd solvation model                     
  S Lehtola, MJT Oliveira, MAL Marques          : LibXC Library                           
  Liviu Ungur et al                             : ANISO software                          


 Your calculation uses the libint2 library for the computation of 2-el integrals
 For citations please refer to: http://libint.valeyev.net

 Your ORCA version has been built with support for libXC version: 6.2.2
 For citations please refer to: https://libxc.gitlab.io

 This ORCA versions uses:
   CBLAS   interface :  Fast vector & matrix operations
   LAPACKE interface :  Fast linear algebra routines
   SCALAPACK package :  Parallel linear algebra routines
   Shared memory     :  Shared parallel matrices
   BLAS/LAPACK       :  OpenBLAS 0.3.27  USE64BITINT DYNAMIC_ARCH NO_AFFINITY SkylakeX SINGLE_THREADED
        Core in use  :  SkylakeX
   Copyright (c) 2011-2014, The OpenBLAS Project


NOTE: MaxCore=5000 MB was set to SCF,MP2,MDCI,CIPSI,MRCI and CIS
      => If you want to overwrite this, your respective input block should be placed after the MaxCore statement
Warning: RI is on but no J-basis has been assigned. Assigning Def2/J (nothing to worry about!)
================================================================================

----- Orbital basis set information -----
Your calculation utilizes the basis: def2-TZVP
   F. Weigend and R. Ahlrichs, Phys. Chem. Chem. Phys. 7, 3297 (2005).

----- AuxJ basis set information -----
Your calculation utilizes the auxiliary basis: def2/J
   F. Weigend, Phys. Chem. Chem. Phys. 8, 1057 (2006).

================================================================================
                                        WARNINGS
                       Please study these warnings very carefully!
================================================================================


WARNING: Geometry Optimization
  ===> : Switching off AutoStart
         For restart on a previous wavefunction, please use MOREAD

================================================================================
                                       INPUT FILE
================================================================================
NAME = honokiol.inp
|  1> ! Opt B3LYP def2-TZVP TightSCF TightOpt
|  2> 
|  3> %maxcore 5000
|  4> 
|  5> %pal
|  6> nprocs 20
|  7> end
|  8> 
|  9> * xyz 0 1
| 10> O          0.29040        2.69180       -1.03220
| 11> O         -4.31070       -0.42590        1.63560
| 12> C          0.96360        0.69900        0.13120
| 13> C         -0.39990        0.40560        0.51570
| 14> C         -2.51970       -0.66010        0.05970
| 15> C         -1.20520       -0.37760       -0.31140
| 16> C          3.30650        0.10170        0.16880
| 17> C          1.98560       -0.16460        0.52960
| 18> C          1.26710        1.82980       -0.62940
| 19> C         -0.90920        0.90620        1.71370
| 20> C         -3.02920       -0.15950        1.25790
| 21> C         -3.36780       -1.50000       -0.83750
| 22> C          4.39720       -0.82180        0.59540
| 23> C          3.60780        1.23180       -0.59100
| 24> C         -2.22370        0.62350        2.08490
| 25> C          2.58810        2.09590       -0.99000
| 26> C         -4.13330       -0.69030       -1.85080
| 27> C          4.65950       -1.92370       -0.39840
| 28> C         -5.46840       -0.63560       -1.91540
| 29> C          4.50110       -3.22600       -0.13640
| 30> H         -0.81010       -0.76760       -1.24750
| 31> H          1.75600       -1.04870        1.12160
| 32> H         -0.29500        1.51850        2.36980
| 33> H         -2.73510       -2.21550       -1.37960
| 34> H         -4.04480       -2.12650       -0.24250
| 35> H          5.32740       -0.25690        0.73970
| 36> H          4.16110       -1.23780        1.58380
| 37> H          4.63250        1.45000       -0.88010
| 38> H         -2.60750        1.02000        3.02110
| 39> H          2.83790        2.97250       -1.58190
| 40> H         -3.55590       -0.12960       -2.58200
| 41> H          5.01500       -1.63310       -1.38400
| 42> H          0.69310        3.41190       -1.54700
| 43> H         -4.48550        0.00370        2.49040
| 44> H         -5.95770       -0.03760       -2.67630
| 45> H         -6.09220       -1.18040       -1.21550
| 46> H          4.71560       -3.96940       -0.89620
| 47> H          4.15620       -3.57130        0.83190
| 48> *
| 49> 
| 50>                          ****END OF INPUT****
================================================================================

                       *****************************
                       * Geometry Optimization Run *
                       *****************************

Geometry optimization settings:
Update method            Update   .... BFGS
Choice of coordinates    CoordSys .... (2022) Redundant Internals
Initial Hessian          InHess   .... Almloef's Model
Max. no of cycles        MaxIter  .... 114

Convergence Tolerances:
Energy Change            TolE     ....  1.0000e-06 Eh
Max. Gradient            TolMAXG  ....  1.0000e-04 Eh/bohr
RMS Gradient             TolRMSG  ....  3.0000e-05 Eh/bohr
Max. Displacement        TolMAXD  ....  1.0000e-03 bohr
RMS Displacement         TolRMSD  ....  6.0000e-04 bohr
Strict Convergence                .... False

------------------------------------------------------------------------------
                        ORCA OPTIMIZATION COORDINATE SETUP
------------------------------------------------------------------------------

The optimization will be done in redundant internal coordinates (2022)
Making redundant internal coordinates   ...  (2022 redundants) done
Evaluating the initial hessian          ...  (Almloef) done
Evaluating the coordinates              ...  done
Calculating the B-matrix                .... done
Calculating the G-matrix                .... done
Diagonalizing the G-matrix              .... done
Small eigenvalue found = 4.065e-03
Small eigenvalue found = 6.328e-03
Small eigenvalue found = 1.004e-02
Small eigenvalue found = 1.819e-02
Small eigenvalue found = 2.590e-02
Small eigenvalue found = 2.991e-02
The first mode is                       ....   77
The number of degrees of freedom        ....  108

    -----------------------------------------------------------------
                    Redundant Internal Coordinates


    -----------------------------------------------------------------
         Definition                    Initial Value    Approx d2E/dq
    -----------------------------------------------------------------
      1. B(C   3,C   2)                  1.4467         0.507240   
      2. B(C   5,C   3)                  1.3950         0.613441   
      3. B(C   5,C   4)                  1.3948         0.613904   
      4. B(C   7,C   6)                  1.3949         0.613551   
      5. B(C   7,C   2)                  1.3961         0.611018   
      6. B(C   8,C   2)                  1.3962         0.610760   
      7. B(C   8,O   0)                  1.3635         0.616729   
      8. B(C   9,C   3)                  1.3947         0.614099   
      9. B(C  10,C   4)                  1.3949         0.613547   
     10. B(C  10,O   1)                  1.3623         0.619534   
     11. B(C  11,C   4)                  1.4932         0.427637   
     12. B(C  12,C   6)                  1.4915         0.430386   
     13. B(C  13,C   6)                  1.3947         0.614089   
     14. B(C  14,C  10)                  1.3949         0.613568   
     15. B(C  14,C   9)                  1.3949         0.613753   
     16. B(C  15,C  13)                  1.3949         0.613721   
     17. B(C  15,C   8)                  1.3949         0.613540   
     18. B(C  16,C  11)                  1.5061         0.407836   
     19. B(C  17,C  12)                  1.5069         0.406722   
     20. B(C  18,C  16)                  1.3378         0.756922   
     21. B(C  19,C  17)                  1.3378         0.756857   
     22. B(H  20,C   5)                  1.0883         0.362301   
     23. B(H  21,C   7)                  1.0885         0.362102   
     24. B(H  22,C   9)                  1.0875         0.363445   
     25. B(H  23,C  11)                  1.0982         0.349368   
     26. B(H  24,C  11)                  1.0977         0.350109   
     27. B(H  25,C  12)                  1.0978         0.349904   
     28. B(H  26,C  12)                  1.0981         0.349595   
     29. B(H  27,C  13)                  1.0868         0.364318   
     30. B(H  28,C  14)                  1.0867         0.364450   
     31. B(H  29,C  15)                  1.0868         0.364334   
     32. B(H  30,C  16)                  1.0874         0.363562   
     33. B(H  31,C  17)                  1.0873         0.363681   
     34. B(H  32,O   0)                  0.9725         0.496644   
     35. B(H  33,O   1)                  0.9725         0.496584   
     36. B(H  34,C  18)                  1.0844         0.367545   
     37. B(H  35,C  18)                  1.0843         0.367666   
     38. B(H  36,C  19)                  1.0844         0.367568   
     39. B(H  37,C  19)                  1.0843         0.367666   
     40. A(C   8,O   0,H  32)          109.1399         0.366880   
     41. A(C  10,O   1,H  33)          109.0496         0.367158   
     42. A(C   7,C   2,C   8)          119.8243         0.431761   
     43. A(C   3,C   2,C   7)          119.2513         0.417652   
     44. A(C   3,C   2,C   8)          120.9244         0.417620   
     45. A(C   2,C   3,C   9)          119.9771         0.418026   
     46. A(C   2,C   3,C   5)          120.0230         0.417946   
     47. A(C   5,C   3,C   9)          119.9999         0.432492   
     48. A(C  10,C   4,C  11)          120.6980         0.405491   
     49. A(C   5,C   4,C  11)          119.2971         0.405533   
     50. A(C   5,C   4,C  10)          120.0049         0.432481   
     51. A(C   3,C   5,H  20)          120.1050         0.352638   
     52. A(C   3,C   5,C   4)          120.0008         0.432467   
     53. A(C   4,C   5,H  20)          119.8941         0.352683   
     54. A(C   7,C   6,C  13)          120.0102         0.432505   
     55. A(C   7,C   6,C  12)          120.0193         0.405951   
     56. A(C  12,C   6,C  13)          119.9705         0.406014   
     57. A(C   2,C   7,H  21)          120.2138         0.352369   
     58. A(C   6,C   7,H  21)          119.7005         0.352616   
     59. A(C   2,C   7,C   6)          120.0857         0.432115   
     60. A(O   0,C   8,C   2)          121.1471         0.429657   
     61. A(C   2,C   8,C  15)          120.0781         0.432081   
     62. A(O   0,C   8,C  15)          118.7748         0.430008   
     63. A(C   3,C   9,C  14)          119.9983         0.432532   
     64. A(C  14,C   9,H  22)          119.0657         0.352856   
     65. A(C   3,C   9,H  22)          120.9360         0.352890   
     66. A(O   1,C  10,C   4)          120.7674         0.430359   
     67. A(O   1,C  10,C  14)          119.2480         0.430362   
     68. A(C   4,C  10,C  14)          119.9846         0.432438   
     69. A(C   4,C  11,C  16)          112.9877         0.377548   
     70. A(H  23,C  11,H  24)          104.5391         0.288189   
     71. A(C  16,C  11,H  24)          110.9812         0.327515   
     72. A(C   4,C  11,H  24)          110.2213         0.330088   
     73. A(C  16,C  11,H  23)          108.1176         0.327401   
     74. A(C   4,C  11,H  23)          109.6231         0.329973   
     75. A(C   6,C  12,C  17)          113.0443         0.377788   
     76. A(H  25,C  12,H  26)          104.9997         0.288192   
     77. A(C   6,C  12,H  26)          109.5606         0.330358   
     78. A(C  17,C  12,H  25)          108.3895         0.327336   
     79. A(C   6,C  12,H  25)          109.7928         0.330406   
     80. A(C  17,C  12,H  26)          110.7349         0.327288   
     81. A(C   6,C  13,C  15)          119.9908         0.432526   
     82. A(C  15,C  13,H  27)          119.2607         0.352997   
     83. A(C   6,C  13,H  27)          120.7485         0.353032   
     84. A(C  10,C  14,H  28)          120.7705         0.353003   
     85. A(C   9,C  14,H  28)          119.2181         0.353021   
     86. A(C   9,C  14,C  10)          120.0114         0.432464   
     87. A(C  13,C  15,H  29)          119.1713         0.352999   
     88. A(C   8,C  15,H  29)          120.8177         0.352982   
     89. A(C   8,C  15,C  13)          120.0110         0.432457   
     90. A(C  11,C  16,C  18)          124.1744         0.417355   
     91. A(C  18,C  16,H  30)          118.4489         0.365700   
     92. A(C  11,C  16,H  30)          117.3699         0.329559   
     93. A(C  12,C  17,C  19)          124.1995         0.417146   
     94. A(C  19,C  17,H  31)          118.4512         0.365715   
     95. A(C  12,C  17,H  31)          117.3419         0.329428   
     96. A(H  34,C  18,H  35)          118.0592         0.292733   
     97. A(C  16,C  18,H  35)          121.4944         0.366404   
     98. A(C  16,C  18,H  34)          120.4463         0.366383   
     99. A(H  36,C  19,H  37)          118.0531         0.292736   
    100. A(C  17,C  19,H  37)          121.5026         0.366398   
    101. A(C  17,C  19,H  36)          120.4443         0.366382   
    102. D(C   5,C   3,C   2,C   8)     90.0060         0.017531   
    103. D(C   9,C   3,C   2,C   8)    -89.9875         0.017531   
    104. D(C   9,C   3,C   2,C   7)     90.0060         0.017531   
    105. D(C   5,C   3,C   2,C   7)    -90.0006         0.017531   
    106. D(H  20,C   5,C   4,C  11)      0.1081         0.026048   
    107. D(H  20,C   5,C   3,C   2)     -0.1057         0.026007   
    108. D(H  20,C   5,C   4,C  10)   -179.8895         0.026048   
    109. D(C   3,C   5,C   4,C  10)      0.0005         0.026048   
    110. D(C   3,C   5,C   4,C  11)    179.9981         0.026048   
    111. D(C   4,C   5,C   3,C   9)     -0.0021         0.026007   
    112. D(C   4,C   5,C   3,C   2)   -179.9955         0.026007   
    113. D(H  20,C   5,C   3,C   9)    179.8877         0.026007   
    114. D(C   6,C   7,C   2,C   3)   -179.9871         0.025790   
    115. D(C   6,C   7,C   2,C   8)      0.0064         0.025790   
    116. D(H  21,C   7,C   2,C   3)      0.0854         0.025790   
    117. D(H  21,C   7,C   6,C  13)    179.9229         0.026016   
    118. D(H  21,C   7,C   6,C  12)     -0.0814         0.026016   
    119. D(C   2,C   7,C   6,C  13)     -0.0049         0.026016   
    120. D(C   2,C   7,C   6,C  12)    179.9908         0.026016   
    121. D(H  21,C   7,C   2,C   8)   -179.9211         0.025790   
    122. D(C  15,C   8,C   2,C   7)     -0.0099         0.025767   
    123. D(C  15,C   8,C   2,C   3)    179.9835         0.025767   
    124. D(O   0,C   8,C   2,C   7)   -179.9515         0.025767   
    125. D(C  15,C   8,O   0,H  32)      0.0452         0.027884   
    126. D(O   0,C   8,C   2,C   3)      0.0420         0.025767   
    127. D(C   2,C   8,O   0,H  32)    179.9875         0.027884   
    128. D(H  22,C   9,C   3,C   5)   -179.9833         0.026066   
    129. D(C  14,C   9,C   3,C   5)      0.0122         0.026066   
    130. D(H  22,C   9,C   3,C   2)      0.0102         0.026066   
    131. D(C  14,C   9,C   3,C   2)   -179.9944         0.026066   
    132. D(C   4,C  10,O   1,H  33)   -179.9454         0.028157   
    133. D(C  14,C  10,C   4,C  11)    179.9934         0.026016   
    134. D(C  14,C  10,C   4,C   5)     -0.0090         0.026016   
    135. D(O   1,C  10,C   4,C  11)      0.0106         0.026016   
    136. D(O   1,C  10,C   4,C   5)   -179.9919         0.026016   
    137. D(C  14,C  10,O   1,H  33)      0.0716         0.028157   
    138. D(H  24,C  11,C   4,C   5)    145.1962         0.013509   
    139. D(H  23,C  11,C   4,C  10)   -149.3480         0.013509   
    140. D(H  23,C  11,C   4,C   5)     30.6544         0.013509   
    141. D(C  16,C  11,C   4,C  10)     89.9968         0.013509   
    142. D(C  16,C  11,C   4,C   5)    -90.0008         0.013509   
    143. D(H  26,C  12,C   6,C   7)    -34.0197         0.013680   
    144. D(H  25,C  12,C   6,C  13)     31.1553         0.013680   
    145. D(H  25,C  12,C   6,C   7)   -148.8404         0.013680   
    146. D(C  17,C  12,C   6,C  13)    -90.0058         0.013680   
    147. D(C  17,C  12,C   6,C   7)     89.9985         0.013680   
    148. D(H  27,C  13,C   6,C  12)      0.0993         0.026065   
    149. D(H  27,C  13,C   6,C   7)   -179.9050         0.026065   
    150. D(C  15,C  13,C   6,C  12)   -179.9887         0.026065   
    151. D(C  15,C  13,C   6,C   7)      0.0070         0.026065   
    152. D(H  28,C  14,C  10,C   4)   -179.9979         0.026018   
    153. D(H  28,C  14,C  10,O   1)     -0.0148         0.026018   
    154. D(C   9,C  14,C  10,C   4)      0.0191         0.026018   
    155. D(C   9,C  14,C  10,O   1)   -179.9978         0.026018   
    156. D(H  28,C  14,C   9,H  22)     -0.0084         0.026035   
    157. D(H  28,C  14,C   9,C   3)    179.9961         0.026035   
    158. D(C  10,C  14,C   9,H  22)    179.9749         0.026035   
    159. D(C  10,C  14,C   9,C   3)     -0.0207         0.026035   
    160. D(C   8,C  15,C  13,C   6)     -0.0105         0.026032   
    161. D(H  29,C  15,C   8,C   2)    179.9913         0.026015   
    162. D(H  29,C  15,C   8,O   0)     -0.0657         0.026015   
    163. D(C  13,C  15,C   8,C   2)      0.0119         0.026015   
    164. D(C  13,C  15,C   8,O   0)    179.9549         0.026015   
    165. D(H  29,C  15,C  13,H  27)     -0.0769         0.026032   
    166. D(H  29,C  15,C  13,C   6)   -179.9902         0.026032   
    167. D(C   8,C  15,C  13,H  27)    179.9028         0.026032   
    168. D(H  30,C  16,C  11,H  23)    -58.1930         0.012324   
    169. D(H  30,C  16,C  11,C   4)     63.3159         0.012324   
    170. D(C  18,C  16,C  11,H  24)      6.7363         0.012324   
    171. D(C  18,C  16,C  11,H  23)    120.8385         0.012324   
    172. D(C  18,C  16,C  11,C   4)   -117.6526         0.012324   
    173. D(H  31,C  17,C  12,H  25)    -58.5091         0.012259   
    174. D(H  31,C  17,C  12,C   6)     63.4429         0.012259   
    175. D(C  19,C  17,C  12,H  26)      5.8096         0.012259   
    176. D(C  19,C  17,C  12,H  25)    120.4856         0.012259   
    177. D(C  19,C  17,C  12,C   6)   -117.5624         0.012259   
    178. D(H  35,C  18,C  16,H  30)    179.5892         0.040932   
    179. D(H  35,C  18,C  16,C  11)      0.5674         0.040932   
    180. D(H  34,C  18,C  16,H  30)     -0.5082         0.040932   
    181. D(H  34,C  18,C  16,C  11)   -179.5299         0.040932   
    182. D(H  37,C  19,C  17,H  31)    179.5624         0.040924   
    183. D(H  37,C  19,C  17,C  12)      0.5780         0.040924   
    184. D(H  36,C  19,C  17,H  31)     -0.5262         0.040924   
    185. D(H  36,C  19,C  17,C  12)   -179.5106         0.040924   
    -----------------------------------------------------------------

Number of atoms                         .... 38
Number of degrees of freedom            .... 185


         *************************************************************
         *                GEOMETRY OPTIMIZATION CYCLE   1            *
         *************************************************************
---------------------------------
CARTESIAN COORDINATES (ANGSTROEM)
---------------------------------
  O      0.290400    2.691800   -1.032200
  O     -4.310700   -0.425900    1.635600
  C      0.963600    0.699000    0.131200
  C     -0.399900    0.405600    0.515700
  C     -2.519700   -0.660100    0.059700
  C     -1.205200   -0.377600   -0.311400
  C      3.306500    0.101700    0.168800
  C      1.985600   -0.164600    0.529600
  C      1.267100    1.829800   -0.629400
  C     -0.909200    0.906200    1.713700
  C     -3.029200   -0.159500    1.257900
  C     -3.367800   -1.500000   -0.837500
  C      4.397200   -0.821800    0.595400
  C      3.607800    1.231800   -0.591000
  C     -2.223700    0.623500    2.084900
  C      2.588100    2.095900   -0.990000
  C     -4.133300   -0.690300   -1.850800
  C      4.659500   -1.923700   -0.398400
  C     -5.468400   -0.635600   -1.915400
  C      4.501100   -3.226000   -0.136400
  H     -0.810100   -0.767600   -1.247500
  H      1.756000   -1.048700    1.121600
  H     -0.295000    1.518500    2.369800
  H     -2.735100   -2.215500   -1.379600
  H     -4.044800   -2.126500   -0.242500
  H      5.327400   -0.256900    0.739700
  H      4.161100   -1.237800    1.583800
  H      4.632500    1.450000   -0.880100
  H     -2.607500    1.020000    3.021100
  H      2.837900    2.972500   -1.581900
  H     -3.555900   -0.129600   -2.582000
  H      5.015000   -1.633100   -1.384000
  H      0.693100    3.411900   -1.547000
  H     -4.485500    0.003700    2.490400
  H     -5.957700   -0.037600   -2.676300
  H     -6.092200   -1.180400   -1.215500
  H      4.715600   -3.969400   -0.896200
  H      4.156200   -3.571300    0.831900

----------------------------
CARTESIAN COORDINATES (A.U.)
----------------------------
  NO LB      ZA    FRAG     MASS         X           Y           Z
   0 O     8.0000    0    15.999    0.548776    5.086765   -1.950575
   1 O     8.0000    0    15.999   -8.146042   -0.804834    3.090836
   2 C     6.0000    0    12.011    1.820940    1.320919    0.247932
   3 C     6.0000    0    12.011   -0.755701    0.766473    0.974532
   4 C     6.0000    0    12.011   -4.761543   -1.247408    0.112817
   5 C     6.0000    0    12.011   -2.277498   -0.713561   -0.588461
   6 C     6.0000    0    12.011    6.248379    0.192185    0.318986
   7 C     6.0000    0    12.011    3.752240   -0.311049    1.000799
   8 C     6.0000    0    12.011    2.394472    3.457821   -1.189394
   9 C     6.0000    0    12.011   -1.718139    1.712470    3.238424
  10 C     6.0000    0    12.011   -5.724358   -0.301411    2.377087
  11 C     6.0000    0    12.011   -6.364220   -2.834589   -1.582646
  12 C     6.0000    0    12.011    8.309504   -1.552977    1.125143
  13 C     6.0000    0    12.011    6.817754    2.327765   -1.116828
  14 C     6.0000    0    12.011   -4.202184    1.178244    3.939890
  15 C     6.0000    0    12.011    4.890800    3.960677   -1.870829
  16 C     6.0000    0    12.011   -7.810805   -1.304478   -3.497505
  17 C     6.0000    0    12.011    8.805179   -3.635266   -0.752867
  18 C     6.0000    0    12.011  -10.333778   -1.201110   -3.619581
  19 C     6.0000    0    12.011    8.505846   -6.096257   -0.257759
  20 H     1.0000    0     1.008   -1.530867   -1.450554   -2.357433
  21 H     1.0000    0     1.008    3.318359   -1.981756    2.119517
  22 H     1.0000    0     1.008   -0.557469    2.869549    4.478273
  23 H     1.0000    0     1.008   -5.168590   -4.186688   -2.607066
  24 H     1.0000    0     1.008   -7.643564   -4.018503   -0.458259
  25 H     1.0000    0     1.008   10.067327   -0.485471    1.397830
  26 H     1.0000    0     1.008    7.863339   -2.339103    2.992948
  27 H     1.0000    0     1.008    8.754156    2.740103   -1.663148
  28 H     1.0000    0     1.008   -4.927461    1.927521    5.709052
  29 H     1.0000    0     1.008    5.362854    5.617211   -2.989358
  30 H     1.0000    0     1.008   -6.719677   -0.244909   -4.879273
  31 H     1.0000    0     1.008    9.476977   -3.086112   -2.615381
  32 H     1.0000    0     1.008    1.309769    6.447557   -2.923406
  33 H     1.0000    0     1.008   -8.476367    0.006992    4.706174
  34 H     1.0000    0     1.008  -11.258421   -0.071054   -5.057474
  35 H     1.0000    0     1.008  -11.512590   -2.230633   -2.296962
  36 H     1.0000    0     1.008    8.911193   -7.501079   -1.693573
  37 H     1.0000    0     1.008    7.854080   -6.748779    1.572063

--------------------------------
INTERNAL COORDINATES (ANGSTROEM)
--------------------------------
 O      0   0   0     0.000000000000     0.00000000     0.00000000
 O      1   0   0     6.165008624487     0.00000000     0.00000000
 C      1   2   0     2.403736599547    65.18583200     0.00000000
 C      3   1   2     1.446739803835    91.88033023     0.20113723
 C      2   1   3     2.397079775477    37.56109038   303.41800640
 C      5   2   1     1.394787335044   149.23562110    39.74082646
 C      3   1   2     2.418131811957   118.92454407   180.22422818
 C      7   3   1     1.394944135082    29.97048802   179.97684287
 C      1   2   3     1.363537579240    94.99450392   359.91760120
 C      4   3   1     1.394700989460   119.97707672   270.03289238
 C      2   1   3     1.362302646257    22.93821946   358.50245436
 C      5   2   1     1.493209114625    91.46731365   219.73614375
 C      7   3   1     1.491464481642   149.98974343   179.96083236
 C      7   3   1     1.394705610514    90.03972909   359.97256302
 C     10   4   3     1.394854465527   119.99831248   180.00559934
 C     14   7   3     1.394868416733   119.99077065     0.00000000
 C     12   5   2     1.506114613833   112.98765184    90.00195910
 C     13   7   3     1.506858765777   113.04434118    90.00772679
 C     17  12   5     1.337780721942   124.17437243   242.34736497
 C     18  13   7     1.337804114959   124.19954523   242.43759850
 H      6   5   2     1.088341499714   119.89407049   180.10273428
 H      8   7   3     1.088491143740   119.70049472   179.92782121
 H     10   4   3     1.087483397574   120.93601151     0.00000000
 H     12   5   2     1.098235835329   109.62307362   210.65717831
 H     12   5   2     1.097659441721   110.22127707   325.19892404
 H     13   7   3     1.097818992366   109.79282646   211.16885071
 H     13   7   3     1.098059092217   109.56059215   325.98952071
 H     14   7   3     1.086830317943   120.74849514   180.09253027
 H     15  10   4     1.086731397356   119.21812895   179.99607448
 H     16  14   7     1.086817928634   119.17131835   180.00982506
 H     17  12   5     1.087395369679   117.36987907    63.31593226
 H     18  13   7     1.087306750646   117.34192876    63.44287277
 H      1   2   3     0.972486678572   155.86506763   180.29412434
 H      2   1   3     0.972519531938   106.92409431    97.49827090
 H     19  17  12     1.084429481340   120.44632238   180.47007160
 H     19  17  12     1.084340117306   121.49444129     0.56744796
 H     20  18  13     1.084412214059   120.44426549   180.48940772
 H     20  18  13     1.084339886751   121.50262090     0.57803638

---------------------------
INTERNAL COORDINATES (A.U.)
---------------------------
 O      0   0   0     0.000000000000     0.00000000     0.00000000
 O      1   0   0    11.650177913543     0.00000000     0.00000000
 C      1   2   0     4.542403871226    65.18583200     0.00000000
 C      3   1   2     2.733942016291    91.88033023     0.20113723
 C      2   1   3     4.529824296813    37.56109038   303.41800640
 C      5   2   1     2.635766078296   149.23562110    39.74082646
 C      3   1   2     4.569606880322   118.92454407   180.22422818
 C      7   3   1     2.636062387425    29.97048802   179.97684287
 C      1   2   3     2.576712598074    94.99450392   359.91760120
 C      4   3   1     2.635602908788   119.97707672   270.03289238
 C      2   1   3     2.574378912943    22.93821946   358.50245436
 C      5   2   1     2.821756287317    91.46731365   219.73614375
 C      7   3   1     2.818459408774   149.98974343   179.96083236
 C      7   3   1     2.635611641315    90.03972909   359.97256302
 C     10   4   3     2.635892936523   119.99831248   180.00559934
 C     14   7   3     2.635919300482   119.99077065     0.00000000
 C     12   5   2     2.846144146440   112.98765184    90.00195910
 C     13   7   3     2.847550389818   113.04434118    90.00772679
 C     17  12   5     2.528039191710   124.17437243   242.34736497
 C     18  13   7     2.528083398105   124.19954523   242.43759850
 H      6   5   2     2.056667374641   119.89407049   180.10273428
 H      8   7   3     2.056950160867   119.70049472   179.92782121
 H     10   4   3     2.055045796602   120.93601151     0.00000000
 H     12   5   2     2.075364959229   109.62307362   210.65717831
 H     12   5   2     2.074275733166   110.22127707   325.19892404
 H     13   7   3     2.074577240190   109.79282646   211.16885071
 H     13   7   3     2.075030963152   109.56059215   325.98952071
 H     14   7   3     2.053811654955   120.74849514   180.09253027
 H     15  10   4     2.053624722137   119.21812895   179.99607448
 H     16  14   7     2.053788242554   119.17131835   180.00982506
 H     17  12   5     2.054879447988   117.36987907    63.31593226
 H     18  13   7     2.054711982284   117.34192876    63.44287277
 H      1   2   3     1.837733491388   155.86506763   180.29412434
 H      2   1   3     1.837795575251   106.92409431    97.49827090
 H     19  17  12     2.049274731283   120.44632238   180.47007160
 H     19  17  12     2.049105857733   121.49444129     0.56744796
 H     20  18  13     2.049242100850   120.44426549   180.48940772
 H     20  18  13     2.049105422047   121.50262090     0.57803638

---------------------
BASIS SET INFORMATION
---------------------
There are 3 groups of distinct atoms

 Group   1 Type O   : 11s6p2d1f contracted to 5s3p2d1f pattern {62111/411/11/1}
 Group   2 Type C   : 11s6p2d1f contracted to 5s3p2d1f pattern {62111/411/11/1}
 Group   3 Type H   : 5s1p contracted to 3s1p pattern {311/1}

Atom   0O    basis set group =>   1
Atom   1O    basis set group =>   1
Atom   2C    basis set group =>   2
Atom   3C    basis set group =>   2
Atom   4C    basis set group =>   2
Atom   5C    basis set group =>   2
Atom   6C    basis set group =>   2
Atom   7C    basis set group =>   2
Atom   8C    basis set group =>   2
Atom   9C    basis set group =>   2
Atom  10C    basis set group =>   2
Atom  11C    basis set group =>   2
Atom  12C    basis set group =>   2
Atom  13C    basis set group =>   2
Atom  14C    basis set group =>   2
Atom  15C    basis set group =>   2
Atom  16C    basis set group =>   2
Atom  17C    basis set group =>   2
Atom  18C    basis set group =>   2
Atom  19C    basis set group =>   2
Atom  20H    basis set group =>   3
Atom  21H    basis set group =>   3
Atom  22H    basis set group =>   3
Atom  23H    basis set group =>   3
Atom  24H    basis set group =>   3
Atom  25H    basis set group =>   3
Atom  26H    basis set group =>   3
Atom  27H    basis set group =>   3
Atom  28H    basis set group =>   3
Atom  29H    basis set group =>   3
Atom  30H    basis set group =>   3
Atom  31H    basis set group =>   3
Atom  32H    basis set group =>   3
Atom  33H    basis set group =>   3
Atom  34H    basis set group =>   3
Atom  35H    basis set group =>   3
Atom  36H    basis set group =>   3
Atom  37H    basis set group =>   3
---------------------------------
AUXILIARY/J BASIS SET INFORMATION
---------------------------------
There are 3 groups of distinct atoms

 Group   1 Type O   : 12s5p4d2f1g contracted to 6s4p3d1f1g pattern {711111/2111/211/2/1}
 Group   2 Type C   : 12s5p4d2f1g contracted to 6s4p3d1f1g pattern {711111/2111/211/2/1}
 Group   3 Type H   : 5s2p1d contracted to 3s1p1d pattern {311/2/1}

Atom   0O    basis set group =>   1
Atom   1O    basis set group =>   1
Atom   2C    basis set group =>   2
Atom   3C    basis set group =>   2
Atom   4C    basis set group =>   2
Atom   5C    basis set group =>   2
Atom   6C    basis set group =>   2
Atom   7C    basis set group =>   2
Atom   8C    basis set group =>   2
Atom   9C    basis set group =>   2
Atom  10C    basis set group =>   2
Atom  11C    basis set group =>   2
Atom  12C    basis set group =>   2
Atom  13C    basis set group =>   2
Atom  14C    basis set group =>   2
Atom  15C    basis set group =>   2
Atom  16C    basis set group =>   2
Atom  17C    basis set group =>   2
Atom  18C    basis set group =>   2
Atom  19C    basis set group =>   2
Atom  20H    basis set group =>   3
Atom  21H    basis set group =>   3
Atom  22H    basis set group =>   3
Atom  23H    basis set group =>   3
Atom  24H    basis set group =>   3
Atom  25H    basis set group =>   3
Atom  26H    basis set group =>   3
Atom  27H    basis set group =>   3
Atom  28H    basis set group =>   3
Atom  29H    basis set group =>   3
Atom  30H    basis set group =>   3
Atom  31H    basis set group =>   3
Atom  32H    basis set group =>   3
Atom  33H    basis set group =>   3
Atom  34H    basis set group =>   3
Atom  35H    basis set group =>   3
Atom  36H    basis set group =>   3
Atom  37H    basis set group =>   3
--------------------------------------------------------------------------
By default, for Open MPI 4.0 and later, infiniband ports on a device
are not used by default.  The intent is to use UCX for these devices.
You can override this policy by setting the btl_openib_allow_ib MCA parameter
to true.

  Local host:              psid05
  Local adapter:           mlx4_0
  Local port:              1

--------------------------------------------------------------------------
--------------------------------------------------------------------------
WARNING: There was an error initializing an OpenFabrics device.

  Local host:   psid05
  Local device: mlx4_0
--------------------------------------------------------------------------


           ************************************************************
           *        Program running with 20 parallel MPI-processes    *
           *              working on a common directory               *
           ************************************************************
------------------------------------------------------------------------------
                             ORCA STARTUP CALCULATIONS
                           -- RI-GTO INTEGRALS CHOSEN --
------------------------------------------------------------------------------
------------------------------------------------------------------------------
                   ___                                                        
                  /   \      - P O W E R E D   B Y -                         
                 /     \                                                     
                 |  |  |   _    _      __       _____    __    __             
                 |  |  |  | |  | |    /  \     |  _  \  |  |  /  |          
                  \  \/   | |  | |   /    \    | | | |  |  | /  /          
                 / \  \   | |__| |  /  /\  \   | |_| |  |  |/  /          
                |  |  |   |  __  | /  /__\  \  |    /   |      \           
                |  |  |   | |  | | |   __   |  |    \   |  |\   \          
                \     /   | |  | | |  |  |  |  | |\  \  |  | \   \       
                 \___/    |_|  |_| |__|  |__|  |_| \__\ |__|  \__/        
                                                                              
                      - O R C A' S   B I G   F R I E N D -                    
                                      &                                       
                       - I N T E G R A L  F E E D E R -                       
                                                                              
 v1 FN, 2020, v2 2021, v3 2022-2024                                           
------------------------------------------------------------------------------


----------------------
SHARK INTEGRAL PACKAGE
----------------------

Number of atoms                             ...     38
Number of basis functions                   ...    728
Number of shells                            ...    292
Maximum angular momentum                    ...      3
Integral batch strategy                     ... SHARK/LIBINT Hybrid
RI-J (if used) integral strategy            ... SPLIT-RIJ (Revised 2003 algorithm where possible)
Printlevel                                  ...      1
Contraction scheme used                     ... SEGMENTED contraction
Prescreening option                         ... SCHWARTZ
   Thresh                                   ... 2.500e-11
   Tcut                                     ... 2.500e-12
   Tpresel                                  ... 2.500e-12 
Coulomb Range Separation                    ... NOT USED
Exchange Range Separation                   ... NOT USED
Multipole approximations                    ... NOT USED
Finite Nucleus Model                        ... NOT USED
CABS basis                                  ... NOT available
Auxiliary Coulomb fitting basis             ... AVAILABLE
   # of basis functions in Aux-J            ...   1178
   # of shells in Aux-J                     ...    390
   Maximum angular momentum in Aux-J        ...      4
Auxiliary J/K fitting basis                 ... NOT available
Auxiliary Correlation fitting basis         ... NOT available
Auxiliary 'external' fitting basis          ... NOT available

Checking pre-screening integrals            ... done (  0.0 sec) Dimension = 292
Check shell pair data                       ... done (  0.0 sec)
Shell pair information
Shell pair cut-off parameter TPreSel        ...   2.5e-12
Total number of shell pairs                 ...     42778
Shell pairs after pre-screening             ...     29504
Total number of primitive shell pairs       ...    129780
Primitive shell pairs kept                  ...     60272
          la=0 lb=0:   7925 shell pairs
          la=1 lb=0:   8576 shell pairs
          la=1 lb=1:   2344 shell pairs
          la=2 lb=0:   4143 shell pairs
          la=2 lb=1:   2260 shell pairs
          la=2 lb=2:    571 shell pairs
          la=3 lb=0:   1939 shell pairs
          la=3 lb=1:   1083 shell pairs
          la=3 lb=2:    530 shell pairs
          la=3 lb=3:    133 shell pairs

Calculating one electron integrals          ... done (  0.0 sec)
Calculating RI/J V-Matrix + Cholesky decomp.... done (  0.1 sec)
Calculating Nuclear repulsion               ... done (  0.0 sec) ENN=   1415.476981817476 Eh

Diagonalization of the overlap matrix:
Smallest eigenvalue                        ... 6.794e-06
Time for diagonalization                   ...    0.073 sec
Threshold for overlap eigenvalues          ... 1.000e-07
Number of eigenvalues below threshold      ... 0
Time for construction of square roots      ...    0.034 sec
Total time needed                          ...    0.118 sec

-------------------
DFT GRID GENERATION
-------------------

General Integration Accuracy     IntAcc      ... 4.388
Radial Grid Type                 RadialGrid  ... OptM3 with GC (2021)
Angular Grid (max. ang.)         AngularGrid ... 4 (Lebedev-302)
Angular grid pruning method      GridPruning ... 4 (adaptive)
Weight generation scheme         WeightScheme... mBecke (2022)
Basis function cutoff            BFCut       ... 1.0000e-11
Integration weight cutoff        WCut        ... 1.0000e-14
Partially contracted basis set               ... off
Rotationally invariant grid construction     ... off
Angular grids for H and He will be reduced by one unit

Total number of grid points                  ...   177301
Total number of batches                      ...     2790
Average number of points per batch           ...       63
Average number of grid points per atom       ...     4666

--------------------
COSX GRID GENERATION
--------------------

GRIDX 1
-------
General Integration Accuracy     IntAcc      ... 3.816
Radial Grid Type                 RadialGrid  ... OptM3 with GC (2021)
Angular Grid (max. ang.)         AngularGrid ... 1 (Lebedev-50)
Angular grid pruning method      GridPruning ... 4 (adaptive)
Weight generation scheme         WeightScheme... mBecke (2022)
Basis function cutoff            BFCut       ... 1.0000e-11
Integration weight cutoff        WCut        ... 1.0000e-14
Partially contracted basis set               ... on
Rotationally invariant grid construction     ... off
Angular grids for H and He will be reduced by one unit

Total number of grid points                  ...    22505
Total number of batches                      ...      198
Average number of points per batch           ...      113
Average number of grid points per atom       ...      592
UseSFitting                                  ... on

GRIDX 2
-------
General Integration Accuracy     IntAcc      ... 4.020
Radial Grid Type                 RadialGrid  ... OptM3 with GC (2021)
Angular Grid (max. ang.)         AngularGrid ... 2 (Lebedev-110)
Angular grid pruning method      GridPruning ... 4 (adaptive)
Weight generation scheme         WeightScheme... mBecke (2022)
Basis function cutoff            BFCut       ... 1.0000e-11
Integration weight cutoff        WCut        ... 1.0000e-14
Partially contracted basis set               ... on
Rotationally invariant grid construction     ... off
Angular grids for H and He will be reduced by one unit

Total number of grid points                  ...    48572
Total number of batches                      ...      400
Average number of points per batch           ...      121
Average number of grid points per atom       ...     1278
UseSFitting                                  ... on

GRIDX 3
-------
General Integration Accuracy     IntAcc      ... 4.338
Radial Grid Type                 RadialGrid  ... OptM3 with GC (2021)
Angular Grid (max. ang.)         AngularGrid ... 3 (Lebedev-194)
Angular grid pruning method      GridPruning ... 4 (adaptive)
Weight generation scheme         WeightScheme... mBecke (2022)
Basis function cutoff            BFCut       ... 1.0000e-11
Integration weight cutoff        WCut        ... 1.0000e-14
Partially contracted basis set               ... on
Rotationally invariant grid construction     ... off
Angular grids for H and He will be reduced by one unit

Total number of grid points                  ...   106344
Total number of batches                      ...      849
Average number of points per batch           ...      125
Average number of grid points per atom       ...     2799
UseSFitting                                  ... on
Initializing property integral containers    ... done (  0.0 sec)

SHARK setup successfully completed in   2.6 seconds

Maximum memory used throughout the entire STARTUP-calculation: 70.8 MB
[psid05:15545] 19 more processes have sent help message help-mpi-btl-openib.txt / ib port not selected
[psid05:15545] Set MCA parameter "orte_base_help_aggregate" to 0 to see all help / error messages
[psid05:15545] 19 more processes have sent help message help-mpi-btl-openib.txt / error in device init
--------------------------------------------------------------------------
By default, for Open MPI 4.0 and later, infiniband ports on a device
are not used by default.  The intent is to use UCX for these devices.
You can override this policy by setting the btl_openib_allow_ib MCA parameter
to true.

  Local host:              psid05
  Local adapter:           mlx4_0
  Local port:              1

--------------------------------------------------------------------------
--------------------------------------------------------------------------
WARNING: There was an error initializing an OpenFabrics device.

  Local host:   psid05
  Local device: mlx4_0
--------------------------------------------------------------------------


           ************************************************************
           *        Program running with 20 parallel MPI-processes    *
           *              working on a common directory               *
           ************************************************************
-------------------------------------------------------------------------------
                                 ORCA GUESS
                   Start orbitals & Density for SCF / CASSCF
-------------------------------------------------------------------------------

------------
SCF SETTINGS
------------
Hamiltonian:
 Density Functional     Method          .... DFT(GTOs)
 Exchange Functional    Exchange        .... B88
   X-Alpha parameter    XAlpha          ....  0.666667
   Becke's b parameter  XBeta           ....  0.004200
 Correlation Functional Correlation     .... LYP
 LDA part of GGA corr.  LDAOpt          .... VWN-5
 Gradients option       PostSCFGGA      .... off
 Hybrid DFT is turned on
   Fraction HF Exchange ScalHFX         ....  0.200000
   Scaling of DF-GGA-X  ScalDFX         ....  0.720000
   Scaling of DF-GGA-C  ScalDFC         ....  0.810000
   Scaling of DF-LDA-C  ScalLDAC        ....  1.000000
   Perturbative correction              ....  0.000000
   NL short-range parameter             ....  4.800000
 RI-approximation to the Coulomb term is turned on
   Number of AuxJ basis functions       .... 1178
   RIJ-COSX (HFX calculated with COS-X)).... on


General Settings:
 Integral files         IntName         .... honokiol
 Hartree-Fock type      HFTyp           .... RHF
 Total Charge           Charge          ....    0
 Multiplicity           Mult            ....    1
 Number of Electrons    NEL             ....  142
 Basis Dimension        Dim             ....  728
 Nuclear Repulsion      ENuc            ....   1415.4769818175 Eh

Convergence Acceleration:
 AO-DIIS                CNVDIIS         .... on
   Start iteration      DIISMaxIt       ....    12
   Startup error        DIISStart       ....  0.200000
   # of expansion vecs  DIISMaxEq       ....     5
   Bias factor          DIISBfac        ....   1.050
   Max. coefficient     DIISMaxC        ....  10.000
 MO-DIIS                CNVKDIIS        .... off
 Trust-Rad. Augm. Hess. CNVTRAH         .... auto
   Auto Start mean grad. ratio tolernc. ....  1.125000
   Auto Start start iteration           ....    50
   Auto Start num. interpolation iter.  ....    10
   Max. Number of Micro iterations      ....    24
   Max. Number of Macro iterations      .... Maxiter - #DIIS iter
   Number of Davidson start vectors     ....     2
   Converg. threshold    (grad. norm)   ....   1.000e-05
   Grad. Scal. Fac. for Micro threshold ....   0.100
   Minimum threshold for Micro iter.    ....   1.000e-02
   NR start threshold (gradient norm)   ....   1.000e-04
   Initial trust radius                 ....   0.400
   Minimum AH scaling param. (alpha)    ....   1.000
   Maximum AH scaling param. (alpha)    .... 1000.000
   Quad. conv. algorithm                .... NR
   White noise on init. David. guess    .... on
   Maximum white noise                  ....   0.010
   Pseudo random numbers                .... off
   Inactive MOs                         .... canonical
   Orbital update algorithm             .... Taylor
   Preconditioner                       .... Diag
   Full preconditioner red. dimension   ....   250
 SOSCF                  CNVSOSCF        .... on
   Start iteration      SOSCFMaxIt      ....   150
   Startup grad/error   SOSCFStart      ....  0.003300
   Hessian update       SOSCFHessUp     .... L-BFGS
 Level Shifting         CNVShift        .... on
   Level shift para.    LevelShift      ....    0.2500
   Turn off err/grad.   ShiftErr        ....    0.0010
 Zerner damping         CNVZerner       .... off
 Static damping         CNVDamp         .... on
   Fraction old density DampFac         ....    0.7000
   Max. Damping (<1)    DampMax         ....    0.9800
   Min. Damping (>=0)   DampMin         ....    0.0000
   Turn off err/grad.   DampErr         ....    0.1000

SCF Procedure:
 Maximum # iterations   MaxIter         ....   125
 SCF integral mode      SCFMode         .... Direct
   Integral package                     .... SHARK and LIBINT hybrid scheme
 Reset frequency        DirectResetFreq ....    20
 Integral Threshold     Thresh          ....  2.500e-11 Eh
 Primitive CutOff       TCut            ....  2.500e-12 Eh

Convergence Tolerance:
 Convergence Check Mode ConvCheckMode   .... Total+1el-Energy
 Convergence forced     ConvForced      .... 0
 Energy Change          TolE            ....  1.000e-08 Eh
 1-El. energy change                    ....  1.000e-05 Eh
 Orbital Gradient       TolG            ....  1.000e-05
 Orbital Rotation angle TolX            ....  1.000e-05
 DIIS Error             TolErr          ....  5.000e-07

------------------------------
INITIAL GUESS: MODEL POTENTIAL
------------------------------
Loading Hartree-Fock densities                     ... done
Calculating cut-offs                               ... done
Initializing the effective Hamiltonian             ... done
Setting up the integral package (SHARK)            ... done
Starting the Coulomb interaction                   ... done (   0.2 sec)
Making the grid                                    ... done (   0.2 sec)
Mapping shells                                     ... done
Starting the XC term evaluation                    ... done (   0.1 sec)
  promolecular density results
     # of electrons  =    142.000177191
     EX              =   -114.326267987
     EC              =     -4.771726221
     EX+EC           =   -119.097994208
Transforming the Hamiltonian                       ... done (   0.0 sec)
Diagonalizing the Hamiltonian                      ... done (   0.1 sec)
Back transforming the eigenvectors                 ... done (   0.0 sec)
Now organizing SCF variables                       ... done
                      ------------------
                      INITIAL GUESS DONE (   0.7 sec)
                      ------------------
             **** ENERGY FILE WAS UPDATED (honokiol.en.tmp) ****
Finished Guess after   1.5 sec
Maximum memory used throughout the entire GUESS-calculation: 54.8 MB
[psid05:15622] 19 more processes have sent help message help-mpi-btl-openib.txt / ib port not selected
[psid05:15622] Set MCA parameter "orte_base_help_aggregate" to 0 to see all help / error messages
[psid05:15622] 19 more processes have sent help message help-mpi-btl-openib.txt / error in device init
--------------------------------------------------------------------------
By default, for Open MPI 4.0 and later, infiniband ports on a device
are not used by default.  The intent is to use UCX for these devices.
You can override this policy by setting the btl_openib_allow_ib MCA parameter
to true.

  Local host:              psid05
  Local adapter:           mlx4_0
  Local port:              1

--------------------------------------------------------------------------
--------------------------------------------------------------------------
WARNING: There was an error initializing an OpenFabrics device.

  Local host:   psid05
  Local device: mlx4_0
--------------------------------------------------------------------------


           ************************************************************
           *        Program running with 20 parallel MPI-processes    *
           *              working on a common directory               *
           ************************************************************

-------------------------------------------------------------------------------------------
                                      ORCA LEAN-SCF
                              memory conserving SCF solver
-------------------------------------------------------------------------------------------

----------------------------------------D-I-I-S--------------------------------------------
Iteration    Energy (Eh)           Delta-E    RMSDP     MaxDP     DIISErr   Damp  Time(sec)
-------------------------------------------------------------------------------------------
               ***  Starting incremental Fock matrix formation  ***
    1    -846.3854821616055233     0.00e+00  1.30e-03  7.55e-02  2.33e-01  0.700   4.3
[psid05:15687] 19 more processes have sent help message help-mpi-btl-openib.txt / ib port not selected
[psid05:15687] Set MCA parameter "orte_base_help_aggregate" to 0 to see all help / error messages
[psid05:15687] 19 more processes have sent help message help-mpi-btl-openib.txt / error in device init
    2    -846.6429034613465774    -2.57e-01  1.04e-03  7.53e-02  1.04e-01  0.700   2.6
                               ***Turning on AO-DIIS***
    3    -846.7525569696490493    -1.10e-01  4.04e-04  2.36e-02  3.94e-02  0.700   2.4
    4    -846.8157781086765681    -6.32e-02  6.89e-04  2.95e-02  2.12e-02  0.000   2.3
    5    -846.9519367081570635    -1.36e-01  1.88e-04  1.39e-02  6.03e-03  0.000   2.4
                              *** Initializing SOSCF ***
---------------------------------------S-O-S-C-F--------------------------------------
Iteration    Energy (Eh)           Delta-E    RMSDP     MaxDP     MaxGrad    Time(sec)
--------------------------------------------------------------------------------------
    6    -846.9526284785433745    -6.92e-04  7.78e-05  4.57e-03  1.26e-03     2.4
               *** Restarting incremental Fock matrix formation ***
    7    -846.9527187870558009    -9.03e-05  7.20e-05  2.98e-03  2.44e-04     4.1
    8    -846.9527106265659313     8.16e-06  1.64e-05  8.10e-04  7.17e-04     3.0
    9    -846.9527253982096227    -1.48e-05  1.02e-05  5.87e-04  5.06e-05     2.8
   10    -846.9527252280263383     1.70e-07  3.30e-06  3.23e-04  6.64e-05     2.6
   11    -846.9527255839475401    -3.56e-07  3.05e-06  1.59e-04  1.84e-05     2.3
   12    -846.9527255644429715     1.95e-08  1.34e-06  7.60e-05  1.89e-05     2.3
   13    -846.9527255915486421    -2.71e-08  1.89e-06  1.09e-04  3.45e-06     2.1
   14    -846.9527255708176199     2.07e-08  8.04e-07  3.15e-05  5.56e-06     1.9
   15    -846.9527256256924375    -5.49e-08  1.92e-06  1.06e-04  2.58e-07     1.7
                  *** Gradient check signals convergence ***

               *****************************************************
               *                     SUCCESS                       *
               *           SCF CONVERGED AFTER  15 CYCLES          *
               *****************************************************

Recomputing exchange energy using gridx3       ... done (    6.180 sec)
Old exchange energy                            :    -23.254377980 Eh
New exchange energy                            :    -23.254394128 Eh
Exchange energy change after final integration :     -0.000016148 Eh
Total energy after final integration           :   -846.952741774 Eh
             **** ENERGY FILE WAS UPDATED (honokiol.en.tmp) ****

----------------
TOTAL SCF ENERGY
----------------

Total Energy       :       -846.95274177357396 Eh          -23046.75578 eV

Components:
Nuclear Repulsion  :       1415.47698181747637 Eh           38517.08685 eV
Electronic Energy  :      -2262.42970744316881 Eh          -61563.84218 eV
One Electron Energy:      -3959.75912180465912 Eh         -107750.52364 eV
Two Electron Energy:       1697.32941436149031 Eh           46186.68145 eV

Virial components:
Potential Energy   :      -1690.13398504442807 Eh          -45990.88386 eV
Kinetic Energy     :        843.18124327085411 Eh           22944.12809 eV
Virial Ratio       :          2.00447293927945

DFT components:
N(Alpha)           :       71.000068049784 electrons
N(Beta)            :       71.000068049784 electrons
N(Total)           :      142.000136099568 electrons
E(X)               :      -92.381662214277 Eh       
E(C)               :       -5.637674540265 Eh       
E(XC)              :      -98.019336754543 Eh       

---------------
SCF CONVERGENCE
---------------

  Last Energy change         ...    5.4875e-08  Tolerance :   1.0000e-08
  Last MAX-Density change    ...    1.0585e-04  Tolerance :   1.0000e-07
  Last RMS-Density change    ...    1.9209e-06  Tolerance :   5.0000e-09
  Last DIIS Error            ...    1.2637e-03  Tolerance :   5.0000e-07
  Last Orbital Gradient      ...    2.5779e-07  Tolerance :   1.0000e-05
  Last Orbital Rotation      ...    9.7733e-07  Tolerance :   1.0000e-05


----------------
ORBITAL ENERGIES
----------------

  NO   OCC          E(Eh)            E(eV) 
   0   2.0000     -19.154420      -521.2183 
   1   2.0000     -19.154246      -521.2135 
   2   2.0000     -10.231904      -278.4243 
   3   2.0000     -10.228859      -278.3414 
   4   2.0000     -10.174064      -276.8504 
   5   2.0000     -10.173857      -276.8447 
   6   2.0000     -10.173201      -276.8269 
   7   2.0000     -10.173148      -276.8254 
   8   2.0000     -10.172665      -276.8123 
   9   2.0000     -10.172433      -276.8060 
  10   2.0000     -10.172086      -276.7965 
  11   2.0000     -10.170678      -276.7582 
  12   2.0000     -10.169968      -276.7389 
  13   2.0000     -10.169399      -276.7234 
  14   2.0000     -10.168430      -276.6970 
  15   2.0000     -10.167860      -276.6815 
  16   2.0000     -10.167440      -276.6701 
  17   2.0000     -10.167185      -276.6632 
  18   2.0000     -10.159864      -276.4639 
  19   2.0000     -10.152963      -276.2762 
  20   2.0000      -1.061198       -28.8767 
  21   2.0000      -1.060983       -28.8708 
  22   2.0000      -0.868765       -23.6403 
  23   2.0000      -0.849889       -23.1267 
  24   2.0000      -0.804858       -21.9013 
  25   2.0000      -0.793524       -21.5929 
  26   2.0000      -0.770538       -20.9674 
  27   2.0000      -0.745066       -20.2743 
  28   2.0000      -0.743210       -20.2238 
  29   2.0000      -0.717273       -19.5180 
  30   2.0000      -0.676310       -18.4033 
  31   2.0000      -0.673446       -18.3254 
  32   2.0000      -0.634979       -17.2787 
  33   2.0000      -0.620152       -16.8752 
  34   2.0000      -0.603582       -16.4243 
  35   2.0000      -0.572287       -15.5727 
  36   2.0000      -0.553496       -15.0614 
  37   2.0000      -0.548359       -14.9216 
  38   2.0000      -0.545221       -14.8362 
  39   2.0000      -0.537966       -14.6388 
  40   2.0000      -0.499330       -13.5875 
  41   2.0000      -0.488047       -13.2804 
  42   2.0000      -0.480031       -13.0623 
  43   2.0000      -0.461859       -12.5678 
  44   2.0000      -0.453005       -12.3269 
  45   2.0000      -0.448812       -12.2128 
  46   2.0000      -0.439215       -11.9516 
  47   2.0000      -0.435698       -11.8560 
  48   2.0000      -0.428645       -11.6640 
  49   2.0000      -0.427483       -11.6324 
  50   2.0000      -0.411222       -11.1899 
  51   2.0000      -0.408127       -11.1057 
  52   2.0000      -0.407139       -11.0788 
  53   2.0000      -0.399387       -10.8679 
  54   2.0000      -0.391143       -10.6435 
  55   2.0000      -0.385980       -10.5030 
  56   2.0000      -0.375308       -10.2126 
  57   2.0000      -0.358729        -9.7615 
  58   2.0000      -0.356715        -9.7067 
  59   2.0000      -0.349193        -9.5020 
  60   2.0000      -0.345851        -9.4111 
  61   2.0000      -0.341843        -9.3020 
  62   2.0000      -0.330678        -8.9982 
  63   2.0000      -0.326176        -8.8757 
  64   2.0000      -0.324292        -8.8244 
  65   2.0000      -0.261221        -7.1082 
  66   2.0000      -0.255255        -6.9458 
  67   2.0000      -0.251197        -6.8354 
  68   2.0000      -0.245850        -6.6899 
  69   2.0000      -0.219459        -5.9718 
  70   2.0000      -0.218444        -5.9442 
  71   0.0000      -0.022144        -0.6026 
  72   0.0000      -0.009934        -0.2703 
  73   0.0000      -0.002263        -0.0616 
  74   0.0000       0.006705         0.1824 
  75   0.0000       0.017643         0.4801 
  76   0.0000       0.020619         0.5611 
  77   0.0000       0.025811         0.7024 
  78   0.0000       0.026750         0.7279 
  79   0.0000       0.048114         1.3092 
  80   0.0000       0.055823         1.5190 
  81   0.0000       0.064209         1.7472 
*Only the first 10 virtual orbitals were printed.

                    ********************************
                    * MULLIKEN POPULATION ANALYSIS *
                    ********************************

-----------------------
MULLIKEN ATOMIC CHARGES
-----------------------
   0 O :   -0.404923
   1 O :   -0.411835
   2 C :   -0.004803
   3 C :    0.190659
   4 C :    0.084861
   5 C :   -0.244344
   6 C :    0.195490
   7 C :   -0.230878
   8 C :    0.242695
   9 C :   -0.187780
  10 C :    0.258047
  11 C :   -0.191535
  12 C :   -0.225593
  13 C :   -0.191859
  14 C :   -0.203687
  15 C :   -0.215593
  16 C :   -0.113511
  17 C :   -0.092804
  18 C :   -0.246018
  19 C :   -0.259681
  20 H :    0.103494
  21 H :    0.101109
  22 H :    0.104957
  23 H :    0.105897
  24 H :    0.112809
  25 H :    0.105038
  26 H :    0.106280
  27 H :    0.100691
  28 H :    0.086429
  29 H :    0.087604
  30 H :    0.100501
  31 H :    0.101479
  32 H :    0.309470
  33 H :    0.311037
  34 H :    0.104345
  35 H :    0.103506
  36 H :    0.107933
  37 H :    0.100517
Sum of atomic charges:   -0.0000000

--------------------------------
MULLIKEN REDUCED ORBITAL CHARGES
--------------------------------
  0 O s       :     3.782264  s :     3.782264
      pz      :     1.655482  p :     4.589801
      px      :     1.543698
      py      :     1.390621
      dz2     :     0.003148  d :     0.031140
      dxz     :     0.006858
      dyz     :     0.004462
      dx2y2   :     0.005888
      dxy     :     0.010784
      f0      :     0.000300  f :     0.001719
      f+1     :     0.000107
      f-1     :     0.000222
      f+2     :     0.000186
      f-2     :     0.000474
      f+3     :     0.000287
      f-3     :     0.000144

  1 O s       :     3.780461  s :     3.780461
      pz      :     1.438311  p :     4.598648
      px      :     1.434461
      py      :     1.725876
      dz2     :     0.007179  d :     0.031004
      dxz     :     0.004543
      dyz     :     0.005359
      dx2y2   :     0.007495
      dxy     :     0.006428
      f0      :     0.000175  f :     0.001723
      f+1     :     0.000204
      f-1     :     0.000423
      f+2     :     0.000292
      f-2     :     0.000130
      f+3     :     0.000263
      f-3     :     0.000236

  2 C s       :     3.296198  s :     3.296198
      pz      :     0.940043  p :     2.584624
      px      :     0.743944
      py      :     0.900637
      dz2     :     0.019695  d :     0.113748
      dxz     :     0.024335
      dyz     :     0.015085
      dx2y2   :     0.024900
      dxy     :     0.029733
      f0      :     0.000802  f :     0.010234
      f+1     :     0.001124
      f-1     :     0.001682
      f+2     :     0.001356
      f-2     :     0.001538
      f+3     :     0.001981
      f-3     :     0.001752

  3 C s       :     3.222113  s :     3.222113
      pz      :     0.866452  p :     2.458660
      px      :     0.685829
      py      :     0.906378
      dz2     :     0.026943  d :     0.118332
      dxz     :     0.030008
      dyz     :     0.017659
      dx2y2   :     0.020653
      dxy     :     0.023068
      f0      :     0.001634  f :     0.010236
      f+1     :     0.001691
      f-1     :     0.001122
      f+2     :     0.002071
      f-2     :     0.001207
      f+3     :     0.001216
      f-3     :     0.001296

  4 C s       :     3.208069  s :     3.208069
      pz      :     0.837357  p :     2.580147
      px      :     0.843201
      py      :     0.899589
      dz2     :     0.027909  d :     0.116795
      dxz     :     0.024293
      dyz     :     0.019156
      dx2y2   :     0.019987
      dxy     :     0.025450
      f0      :     0.001536  f :     0.010129
      f+1     :     0.001679
      f-1     :     0.001088
      f+2     :     0.001906
      f-2     :     0.001481
      f+3     :     0.001108
      f-3     :     0.001331

  5 C s       :     3.257535  s :     3.257535
      pz      :     0.969120  p :     2.898027
      px      :     0.933233
      py      :     0.995674
      dz2     :     0.014967  d :     0.081407
      dxz     :     0.020716
      dyz     :     0.008505
      dx2y2   :     0.019106
      dxy     :     0.018113
      f0      :     0.000611  f :     0.007374
      f+1     :     0.001366
      f-1     :     0.000838
      f+2     :     0.001376
      f-2     :     0.000914
      f+3     :     0.001066
      f-3     :     0.001204

  6 C s       :     3.145881  s :     3.145881
      pz      :     0.887605  p :     2.527824
      px      :     0.796100
      py      :     0.844119
      dz2     :     0.018916  d :     0.120739
      dxz     :     0.022897
      dyz     :     0.018383
      dx2y2   :     0.031881
      dxy     :     0.028662
      f0      :     0.000764  f :     0.010066
      f+1     :     0.001084
      f-1     :     0.001555
      f+2     :     0.001358
      f-2     :     0.001487
      f+3     :     0.001911
      f-3     :     0.001908

  7 C s       :     3.266737  s :     3.266737
      pz      :     0.980854  p :     2.875512
      px      :     0.944276
      py      :     0.950382
      dz2     :     0.005620  d :     0.081271
      dxz     :     0.021820
      dyz     :     0.010388
      dx2y2   :     0.022372
      dxy     :     0.021071
      f0      :     0.000682  f :     0.007357
      f+1     :     0.001039
      f-1     :     0.000734
      f+2     :     0.001140
      f-2     :     0.000966
      f+3     :     0.001431
      f-3     :     0.001365

  8 C s       :     3.063859  s :     3.063859
      pz      :     0.900963  p :     2.512918
      px      :     0.793468
      py      :     0.818487
      dz2     :     0.026636  d :     0.164982
      dxz     :     0.032739
      dyz     :     0.020278
      dx2y2   :     0.052361
      dxy     :     0.032967
      f0      :     0.001183  f :     0.015546
      f+1     :     0.001852
      f-1     :     0.002004
      f+2     :     0.001824
      f-2     :     0.002538
      f+3     :     0.002867
      f-3     :     0.003278

  9 C s       :     3.227593  s :     3.227593
      pz      :     0.949691  p :     2.872670
      px      :     0.947792
      py      :     0.975187
      dz2     :     0.016327  d :     0.080083
      dxz     :     0.021621
      dyz     :     0.013065
      dx2y2   :     0.009410
      dxy     :     0.019661
      f0      :     0.001367  f :     0.007433
      f+1     :     0.001054
      f-1     :     0.000681
      f+2     :     0.001184
      f-2     :     0.001185
      f+3     :     0.000960
      f-3     :     0.001002

 10 C s       :     3.057461  s :     3.057461
      pz      :     0.893288  p :     2.503971
      px      :     0.687003
      py      :     0.923681
      dz2     :     0.036176  d :     0.164935
      dxz     :     0.040884
      dyz     :     0.018691
      dx2y2   :     0.027714
      dxy     :     0.041470
      f0      :     0.002080  f :     0.015587
      f+1     :     0.002931
      f-1     :     0.001249
      f+2     :     0.002913
      f-2     :     0.001561
      f+3     :     0.002311
      f-3     :     0.002540

 11 C s       :     3.231172  s :     3.231172
      pz      :     0.942642  p :     2.868737
      px      :     1.000667
      py      :     0.925428
      dz2     :     0.018136  d :     0.085959
      dxz     :     0.020434
      dyz     :     0.016296
      dx2y2   :     0.014118
      dxy     :     0.016975
      f0      :     0.000406  f :     0.005667
      f+1     :     0.000617
      f-1     :     0.000674
      f+2     :     0.000955
      f-2     :     0.002091
      f+3     :     0.000499
      f-3     :     0.000427

 12 C s       :     3.254729  s :     3.254729
      pz      :     0.956059  p :     2.878993
      px      :     0.959073
      py      :     0.963861
      dz2     :     0.019227  d :     0.086201
      dxz     :     0.012923
      dyz     :     0.014076
      dx2y2   :     0.017260
      dxy     :     0.022714
      f0      :     0.000517  f :     0.005671
      f+1     :     0.000392
      f-1     :     0.001371
      f+2     :     0.000478
      f-2     :     0.001059
      f+3     :     0.000743
      f-3     :     0.001111

 13 C s       :     3.226372  s :     3.226372
      pz      :     0.969274  p :     2.878475
      px      :     0.959241
      py      :     0.949960
      dz2     :     0.015532  d :     0.079591
      dxz     :     0.011740
      dyz     :     0.013266
      dx2y2   :     0.025778
      dxy     :     0.013275
      f0      :     0.000615  f :     0.007421
      f+1     :     0.000630
      f-1     :     0.001538
      f+2     :     0.000889
      f-2     :     0.001219
      f+3     :     0.001473
      f-3     :     0.001057

 14 C s       :     3.234080  s :     3.234080
      pz      :     0.958142  p :     2.891794
      px      :     0.940531
      py      :     0.993121
      dz2     :     0.009337  d :     0.070481
      dxz     :     0.020945
      dyz     :     0.007337
      dx2y2   :     0.015805
      dxy     :     0.017057
      f0      :     0.000651  f :     0.007332
      f+1     :     0.001350
      f-1     :     0.000811
      f+2     :     0.001328
      f-2     :     0.000970
      f+3     :     0.001032
      f-3     :     0.001190

 15 C s       :     3.239823  s :     3.239823
      pz      :     1.018574  p :     2.897319
      px      :     0.899861
      py      :     0.978885
      dz2     :     0.006787  d :     0.071082
      dxz     :     0.020003
      dyz     :     0.009861
      dx2y2   :     0.019859
      dxy     :     0.014572
      f0      :     0.000667  f :     0.007369
      f+1     :     0.001040
[...]
      f+2     :     0.004488
      f-2     :     0.001068
      f+3     :     0.006311
      f-3     :     0.008081

 19 C s       :     2.855413  s :     2.855413
      pz      :     1.062770  p :     3.094581
      px      :     0.966404
      py      :     1.065407
      dz2     :     0.108627  d :     0.239682
      dxz     :     0.012891
      dyz     :     0.054042
      dx2y2   :     0.047904
      dxy     :     0.016218
      f0      :     0.005180  f :     0.028286
      f+1     :     0.000573
      f-1     :     0.007880
      f+2     :     0.005597
      f-2     :     0.003821
      f+3     :     0.001669
      f-3     :     0.003566

 20 H s       :     0.788658  s :     0.788658
      pz      :     0.033761  p :     0.059101
      px      :     0.011782
      py      :     0.013558

 21 H s       :     0.785664  s :     0.785664
      pz      :     0.023068  p :     0.059231
      px      :     0.011035
      py      :     0.025128

 22 H s       :     0.793451  s :     0.793451
      pz      :     0.021758  p :     0.058944
      px      :     0.022726
      py      :     0.014459

 23 H s       :     0.795383  s :     0.795383
      pz      :     0.027502  p :     0.057461
      px      :     0.016404
      py      :     0.013555

 24 H s       :     0.793667  s :     0.793667
      pz      :     0.014193  p :     0.058418
      px      :     0.018778
      py      :     0.025446

 25 H s       :     0.796059  s :     0.796059
      pz      :     0.014667  p :     0.057309
      px      :     0.026232
      py      :     0.016411

 26 H s       :     0.796724  s :     0.796724
      pz      :     0.032958  p :     0.057487
      px      :     0.012316
      py      :     0.012212

 27 H s       :     0.798096  s :     0.798096
      pz      :     0.013944  p :     0.058340
      px      :     0.030250
      py      :     0.014146

 28 H s       :     0.801685  s :     0.801685
      pz      :     0.032001  p :     0.058710
      px      :     0.011704
      py      :     0.015005

 29 H s       :     0.801556  s :     0.801556
      pz      :     0.023202  p :     0.058667
      px      :     0.011206
      py      :     0.024260

 30 H s       :     0.802904  s :     0.802904
      pz      :     0.014487  p :     0.058337
      px      :     0.015170
      py      :     0.028680

 31 H s       :     0.802118  s :     0.802118
      pz      :     0.032740  p :     0.058306
      px      :     0.012788
      py      :     0.012777

 32 H s       :     0.663579  s :     0.663579
      pz      :     0.054019  p :     0.152304
      px      :     0.039325
      py      :     0.058961

 33 H s       :     0.663137  s :     0.663137
      pz      :     0.080566  p :     0.152101
      px      :     0.030382
      py      :     0.041153

 34 H s       :     0.820525  s :     0.820525
      pz      :     0.014950  p :     0.061434
      px      :     0.017218
      py      :     0.029266

 35 H s       :     0.819374  s :     0.819374
      pz      :     0.016136  p :     0.061252
      px      :     0.015765
      py      :     0.029351

 36 H s       :     0.818930  s :     0.818930
      pz      :     0.014155  p :     0.061627
      px      :     0.014560
      py      :     0.032912

 37 H s       :     0.820920  s :     0.820920
      pz      :     0.034245  p :     0.061224
      px      :     0.014389
      py      :     0.012589



                      *****************************
                      * MAYER POPULATION ANALYSIS *
                      *****************************

  NA   - Mulliken gross atomic population
  ZA   - Total nuclear charge
  QA   - Mulliken gross atomic charge
  VA   - Mayer's total valence
  BVA  - Mayer's bonded valence
  FA   - Mayer's free valence

  ATOM       NA         ZA         QA         VA         BVA        FA
  0 O      8.4051     8.0000    -0.4051     2.0718     2.0718    -0.0000
  1 O      8.4074     8.0000    -0.4074     2.0784     2.0784    -0.0000
  2 C      5.9408     6.0000     0.0592     3.6314     3.6314    -0.0000
  3 C      5.8334     6.0000     0.1666     3.6693     3.6693    -0.0000
  4 C      5.9368     6.0000     0.0632     3.7412     3.7412    -0.0000
  5 C      6.2210     6.0000    -0.2210     3.9583     3.9583    -0.0000
  6 C      5.8760     6.0000     0.1240     3.7437     3.7437     0.0000
  7 C      6.2401     6.0000    -0.2401     3.9028     3.9028     0.0000
  8 C      5.7908     6.0000     0.2092     3.9485     3.9485    -0.0000
  9 C      6.2204     6.0000    -0.2204     4.0057     4.0057    -0.0000
 10 C      5.7457     6.0000     0.2543     3.9286     3.9286     0.0000
 11 C      6.1669     6.0000    -0.1669     3.8708     3.8708    -0.0000
 12 C      6.1961     6.0000    -0.1961     3.8751     3.8751     0.0000
 13 C      6.1771     6.0000    -0.1771     3.9847     3.9847     0.0000
 14 C      6.1954     6.0000    -0.1954     3.8550     3.8550    -0.0000
 15 C      6.2028     6.0000    -0.2028     3.8765     3.8765    -0.0000
 16 C      6.1097     6.0000    -0.1097     3.8611     3.8611     0.0000
 17 C      6.0875     6.0000    -0.0875     3.8381     3.8381     0.0000
 18 C      6.2461     6.0000    -0.2461     3.9413     3.9413     0.0000
 19 C      6.2619     6.0000    -0.2619     3.9411     3.9411     0.0000
 20 H      0.9023     1.0000     0.0977     0.9942     0.9942    -0.0000
 21 H      0.8724     1.0000     0.1276     0.9802     0.9802     0.0000
 22 H      0.8820     1.0000     0.1180     0.9756     0.9756     0.0000
 23 H      0.8969     1.0000     0.1031     0.9630     0.9630    -0.0000
 24 H      0.8911     1.0000     0.1089     0.9817     0.9817    -0.0000
 25 H      0.8954     1.0000     0.1046     0.9681     0.9681    -0.0000
 26 H      0.8987     1.0000     0.1013     0.9699     0.9699     0.0000
 27 H      0.9028     1.0000     0.0972     0.9760     0.9760    -0.0000
 28 H      0.9127     1.0000     0.0873     0.9836     0.9836    -0.0000
 29 H      0.9141     1.0000     0.0859     0.9845     0.9845    -0.0000
 30 H      0.8978     1.0000     0.1022     0.9755     0.9755     0.0000
 31 H      0.8982     1.0000     0.1018     0.9750     0.9750     0.0000
 32 H      0.6955     1.0000     0.3045     0.9271     0.9271     0.0000
 33 H      0.6940     1.0000     0.3060     0.9257     0.9257    -0.0000
 34 H      0.8952     1.0000     0.1048     0.9729     0.9729     0.0000
 35 H      0.8997     1.0000     0.1003     0.9788     0.9788    -0.0000
 36 H      0.8902     1.0000     0.1098     0.9745     0.9745    -0.0000
 37 H      0.8999     1.0000     0.1001     0.9779     0.9779     0.0000

  Mayer bond orders larger than 0.100000
B(  0-O ,  8-C ) :   1.1558 B(  0-O , 32-H ) :   0.8873 B(  1-O , 10-C ) :   1.1401 
B(  1-O , 33-H ) :   0.8887 B(  2-C ,  3-C ) :   0.8836 B(  2-C ,  7-C ) :   1.3831 
B(  2-C ,  8-C ) :   1.3215 B(  3-C ,  5-C ) :   1.3546 B(  3-C ,  9-C ) :   1.3835 
B(  4-C ,  5-C ) :   1.4252 B(  4-C , 10-C ) :   1.3328 B(  4-C , 11-C ) :   0.9117 
B(  5-C , 20-H ) :   0.9718 B(  6-C ,  7-C ) :   1.3834 B(  6-C , 12-C ) :   0.9063 
B(  6-C , 13-C ) :   1.3893 B(  7-C , 21-H ) :   0.9586 B(  8-C , 15-C ) :   1.3786 
B(  9-C , 14-C ) :   1.4248 B(  9-C , 22-H ) :   0.9485 B( 10-C , 14-C ) :   1.3576 
B( 11-C , 16-C ) :   0.9711 B( 11-C , 23-H ) :   0.9712 B( 11-C , 24-H ) :   0.9614 
B( 12-C , 17-C ) :   0.9686 B( 12-C , 25-H ) :   0.9734 B( 12-C , 26-H ) :   0.9643 
B( 13-C , 15-C ) :   1.4096 B( 13-C , 27-H ) :   0.9621 B( 14-C , 28-H ) :   0.9599 
B( 15-C , 29-H ) :   0.9618 B( 16-C , 18-C ) :   1.9390 B( 16-C , 30-H ) :   0.9548 
B( 17-C , 19-C ) :   1.9275 B( 17-C , 31-H ) :   0.9539 B( 18-C , 34-H ) :   0.9648 
B( 18-C , 35-H ) :   0.9597 B( 19-C , 36-H ) :   0.9653 B( 19-C , 37-H ) :   0.9636 


-------
TIMINGS
-------

Total SCF time: 0 days 0 hours 0 min 20 sec 

Total time                  ....      20.383 sec
Sum of individual times     ....      20.168 sec  ( 98.9%)

SCF preparation             ....       0.905 sec  (  4.4%)
Fock matrix formation       ....      17.861 sec  ( 87.6%)
  Startup                   ....       0.081 sec  (  0.5% of F)
  Split-RI-J                ....       1.220 sec  (  6.8% of F)
  Chain of spheres X        ....      14.895 sec  ( 83.4% of F)
  XC integration            ....       1.437 sec  (  8.0% of F)
    XC Preparation          ....       0.000 sec  (  0.0% of XC)
    Basis function eval.    ....       0.323 sec  ( 22.4% of XC)
    Density eval.           ....       0.365 sec  ( 25.4% of XC)
    XC-Functional eval.     ....       0.031 sec  (  2.2% of XC)
    XC-Potential eval.      ....       0.459 sec  ( 32.0% of XC)
Diagonalization             ....       0.000 sec  (  0.0%)
Density matrix formation    ....       0.176 sec  (  0.9%)
Total Energy calculation    ....       0.078 sec  (  0.4%)
Population analysis         ....       0.223 sec  (  1.1%)
Orbital Transformation      ....       0.169 sec  (  0.8%)
Orbital Orthonormalization  ....       0.000 sec  (  0.0%)
DIIS solution               ....       0.204 sec  (  1.0%)
SOSCF solution              ....       0.553 sec  (  2.7%)
Finished LeanSCF after  20.5 sec

Maximum memory used throughout the entire LEANSCF-calculation: 106.4 MB

-------------------------   --------------------
FINAL SINGLE POINT ENERGY      -846.962452258428
-------------------------   --------------------

                                *** OPTIMIZATION RUN DONE ***

--------------------------------------------------------------------------
By default, for Open MPI 4.0 and later, infiniband ports on a device
are not used by default.  The intent is to use UCX for these devices.
You can override this policy by setting the btl_openib_allow_ib MCA parameter
to true.

  Local host:              psid05
  Local adapter:           mlx4_0
  Local port:              1

--------------------------------------------------------------------------
--------------------------------------------------------------------------
WARNING: There was an error initializing an OpenFabrics device.

  Local host:   psid05
  Local device: mlx4_0
--------------------------------------------------------------------------


           ************************************************************
           *        Program running with 20 parallel MPI-processes    *
           *              working on a common directory               *
           ************************************************************

------------------------------------------------------------------------------
                              ORCA PROPERTY CALCULATIONS
------------------------------------------------------------------------------

GBWName                                 ... honokiol.gbw
Number of atoms                         ...     38
Number of basis functions               ...    728
Max core memory                         ...   5000 MB

Electric properties:
Dipole moment                           ... YES
Quadrupole moment                       ...  NO
Static polarizability (Dipole/Dipole)   ...  NO
Static polarizability (Dipole/Quad.)    ...  NO
Static polarizability (Quad./Quad.)     ...  NO
Static polarizability (Velocity)        ...  NO

Atomic electric properties:
Dipole moment                           ...  NO
Quadrupole moment                       ...  NO
Static polarizability                   ...  NO

Choice of electric origin               ... Center of mass
Position of electric origin             ...    -0.070253    -0.171017    -0.169309

General magnetic properties:
Magnetizability                         ...  NO

EPR properties:
g-Tensor (aka g-matrix)                 ...  NO
Zero-Field splitting spin-orbit         ...  NO
Zero-field splitting spin-spin          ...  NO
Hyperfine couplings                     ...  NO (   0 nuclei)
Quadrupole couplings                    ...  NO (   0 nuclei)
Contact density                         ...  NO (   0 nuclei)

NMR properties:
Chemical shifts                         ...  NO (   0 nuclei)
Spin-rotation constants                 ...  NO (   0 nuclei)
Spin-spin couplings                     ...  NO (   0 nuclei,    0 pairs)

Choice of magnetic origin               ... GIAO
Position of magnetic origin             ...     0.000000     0.000000     0.000000

Properties with geometric perturbations:
SCF Hessian                             ...  NO
IR spectrum                             ...  NO
VCD spectrum                            ...  NO
X-ray spectroscopy properties:
SCF XES/XAS/RIXS spectra                ...  NO


-------------
DIPOLE MOMENT
-------------

Method             : SCF
Type of density    : Electron Density
Multiplicity       :   1
Irrep              :   0
Energy             :  -846.9624522584282431 Eh
Relativity type    : 
Basis              : AO
                                X                 Y                 Z
Electronic contribution:     -2.405733844       4.454495914       0.297020943
Nuclear contribution   :      2.838977935      -4.105754795      -0.114510112
                        -----------------------------------------
Total Dipole Moment    :      0.433244090       0.348741118       0.182510831
                        -----------------------------------------
Magnitude (a.u.)       :      0.585346917
Magnitude (Debye)      :      1.487833623



--------------------
Rotational spectrum 
--------------------
 
Rotational constants in cm-1:             0.021141             0.005463             0.004679 
Rotational constants in MHz :           633.799005           163.763763           140.282294 

Dipole components along the rotational axes: 
x,y,z [a.u.] :     0.439958     0.149180     0.356109 
x,y,z [Debye]:     1.118284     0.379186     0.905156 

 

Dipole moment calculation done in   0.1 sec 

Maximum memory used throughout the entire PROP-calculation: 57.0 MB
[psid05:27897] 19 more processes have sent help message help-mpi-btl-openib.txt / ib port not selected
[psid05:27897] Set MCA parameter "orte_base_help_aggregate" to 0 to see all help / error messages
[psid05:27897] 19 more processes have sent help message help-mpi-btl-openib.txt / error in device init
--------------------------------------------------------------------------
By default, for Open MPI 4.0 and later, infiniband ports on a device
are not used by default.  The intent is to use UCX for these devices.
You can override this policy by setting the btl_openib_allow_ib MCA parameter
to true.

  Local host:              psid05
  Local adapter:           mlx4_0
  Local port:              1

--------------------------------------------------------------------------
--------------------------------------------------------------------------
WARNING: There was an error initializing an OpenFabrics device.

  Local host:   psid05
  Local device: mlx4_0
--------------------------------------------------------------------------
[psid05:27962] 19 more processes have sent help message help-mpi-btl-openib.txt / ib port not selected
[psid05:27962] Set MCA parameter "orte_base_help_aggregate" to 0 to see all help / error messages
[psid05:27962] 19 more processes have sent help message help-mpi-btl-openib.txt / error in device init

--------------------------------
SUGGESTED CITATIONS FOR THIS RUN
--------------------------------

Below you find a list of papers that are relevant to this ORCA run
We neither can nor want to force you to cite these papers, but we appreciate if you do
You receive ORCA, which is the product of decades of hard work by many enthusiastic individuals, for free
The only thing we kindly ask in return is that you cite our papers,
We deeply appreciate it, if you show your appreciation for ORCA by not just citing the generic ORCA reference.

Please note that relegating all ORCA citations to the supporting information does *not* help us.
SI sections are not indexed - citations you put there will not count into any citation statistics
But we need these citations in order to attract the funding resources that allow us to do what we are doing

Therefore, if you are a happy ORCA user, please consider citing a few of the papers listed below in the main body of your paper

In addition to the list printed below, the program has created the file honokiol.bibtex that contains the list in bibtex format
You can import this file easily into all common literature databanks and citation aid programs


List of essential papers. We consider these as the minimum necessary citations

  1. Neese,F.
     Software update: the ORCA program system, version 5.0
     WIRES Comput. Molec. Sci., 2022 12(1)e1606
     doi.org/10.1002/wcms.1606

List of papers to cite with high priority. The work reported in these papers was absolutely
necessary for this run to complete.
Our perspective: the developers of density functionals and basis sets usually get cited in chemistry papers
Good! But without the algorithms to do something with them, the functionals or basis sets would not do anything.
Hence, in our opinion, the algorithm design and method developments papers are equally worthy of getting cited

  1. Neese,F.
     An improvement of the resolution of the identity approximation for the formation of the Coulomb matrix
     J. Comp. Chem., 2003 24(14)1740-1747
     doi.org/10.1002/jcc.10318
  2. Neese,F.; Wennmohs,F.; Hansen,A.; Becker,U.
     Efficient, approximate and parallel Hartree-Fock and hybrid DFT calculations. A 'chain-of-spheres' algorithm for the Hartree-Fock exchange
     Chem. Phys., 2009 356(1-3)98-109
     doi.org/10.1016/j.chemphys.2008.10.036
  3. Helmich-Paris,B.; de Souza,B.; Neese,F.; Izsák,R.
     An improved chain of spheres for exchange algorithm
     J. Chem. Phys., 2021 155 104109
     doi.org/doi: 10.1063/5.0058766.
  4. Neese,F.
     The SHARK Integral Generation and Digestion System
     J. Comp. Chem., 2022  1-16
     doi.org/10.1002/jcc.26942

List of suggested additional citations. These are papers that are important in the 'surrounding' of 
of this run, or papers that preceded the highly important papers. If you like your results we are grateful for a citation.

  1. Izsak,R.; Neese,F.
     An overlap fitted chain of spheres exchange method
     J. Chem. Phys., 2011 135 144105
     doi.org/10.1063/1.3646921
  2. Izsak,R.; Hansen,A.; Neese,F.
     The resolution of identity and chain of spheres approximations for the LPNO-CCSD singles Fock term
     Molec. Phys., 2012 110 2413-2417
     doi.org/10.1080/00268976.2012.687466
  3. Neese,F.
     The ORCA program system
     WIRES Comput. Molec. Sci., 2012 2(1)73-78
     doi.org/10.1002/wcms.81
  4. Izsak,R.; Neese,F.; Klopper,W.
     Robust fitting techniques in the chain of spheres approximation to the Fock exchange: The role of the complementary space
     J. Chem. Phys., 2013 139 
     doi.org/10.1063/1.4819264
  5. Neese,F.
     Software update: the ORCA program system, version 4.0
     WIRES Comput. Molec. Sci., 2018 8(1)1-6
     doi.org/10.1002/wcms.1327
  6. Neese,F.; Wennmohs,F.; Becker,U.; Riplinger,C.
     The ORCA quantum chemistry program package
     J. Chem. Phys., 2020 152 Art. No. L224108
     doi.org/10.1063/5.0004608

List of optional additional citations

  1. Neese,F.
     Approximate second-order SCF convergence for spin unrestricted wavefunctions
     Chem. Phys. Lett., 2000 325(1-3)93-98
     doi.org/10.1016/s0009-2614(00)00662-x

Timings for individual modules:

Sum of individual times          ...     1684.975 sec (=  28.083 min)
Startup calculation              ...      105.066 sec (=   1.751 min)   6.2 %
SCF iterations                   ...     1090.575 sec (=  18.176 min)  64.7 %
Property calculations            ...        0.909 sec (=   0.015 min)   0.1 %
SCF Gradient evaluation          ...      487.724 sec (=   8.129 min)  28.9 %
Geometry relaxation              ...        0.701 sec (=   0.012 min)   0.0 %
                             ****ORCA TERMINATED NORMALLY****
TOTAL RUN TIME: 0 days 0 hours 28 minutes 39 seconds 475 msec
