
                                 *****************
                                 * O   R   C   A *
                                 *****************

                                            #,                                       
                                            ###                                      
                                            ####                                     
                                            #####                                    
                                            ######                                   
                                           ########,                                 
                                     ,,################,,,,,                         
                               ,,#################################,,                 
                          ,,##########################################,,             
                       ,#########################################, ''#####,          
                    ,#############################################,,   '####,        
                  ,##################################################,,,,####,       
                ,###########''''           ''''###############################       
              ,#####''   ,,,,##########,,,,          '''####'''          '####       
            ,##' ,,,,###########################,,,                        '##       
           ' ,,###''''                  '''############,,,                           
         ,,##''                                '''############,,,,        ,,,,,,###''
      ,#''                                            '''#######################'''  
     '                                                          ''''####''''         
             ,#######,   #######,   ,#######,      ##                                
            ,#'     '#,  ##    ##  ,#'     '#,    #''#        ,####,   ,####,        
            ##       ##  ##   ,#'  ##            #'  '#       #'       #'  '#        
            ##       ##  #######   ##           ,######,      #####,   #    #        
            '#,     ,#'  ##    ##  '#,     ,#' ,#      #,     #,   #   #,  ,#        
             '#######'   ##     ##  '#######'  #'      '#     '####' # '####'        



                #########################################################
                #                        -***-                          #
                #          Department of theory and spectroscopy        #
                #                                                       #
                #                      Frank Neese                      #
                #                                                       #
                #     Directorship, Architecture, Infrastructure        #
                #                    SHARK, DRIVERS                     #
                #        Core code/Algorithms in most modules           #
                #                                                       #
                #        Max Planck Institute fuer Kohlenforschung      #
                #                Kaiser Wilhelm Platz 1                 #
                #                 D-45470 Muelheim/Ruhr                 #
                #                      Germany                          #
                #                                                       #
                #                  All rights reserved                  #
                #                        -***-                          #
                #########################################################


                         Program Version 6.0.1  -  RELEASE   -


 With contributions from (in alphabetic order):
[Max-Planck-Institut fuer Kohlenforschung]                               
  Daniel Aravena         : Magnetic Suceptibility                        
  Michael Atanasov       : Ab Initio Ligand Field Theory (pilot matlab implementation)
  Alexander A. Auer      : GIAO ZORA, VPT2 properties, NMR spectrum      
  Ute Becker             : All parallelization in ORCA, NUMFREQ, NUMCALC 
  Giovanni Bistoni       : ED, misc. LED, open-shell LED, HFLD           
  Martin Brehm           : Molecular dynamics                            
  Dmytro Bykov           : pre 5.0 version of the SCF Hessian            
  Marcos Casanova-Páez   : Triplet and SCS-CIS(D). UHF-(DLPNO)-IP/EA/STEOM-CCSD. UHF-CVS-IP/STEOM-CCSD   
  Vijay G. Chilkuri      : MRCI spin determinant printing, contributions to CSF-ICE 
  Pauline Colinet        : FMM embedding                                 
  Dipayan Datta          : RHF DLPNO-CCSD density                        
  Achintya Kumar Dutta   : EOM-CC, STEOM-CC                              
  Nicolas Foglia         : Exact transition moments, OPA infrastructure, MCD improvements    
  Dmitry Ganyushin       : Spin-Orbit,Spin-Spin,Magnetic field MRCI      
  Miquel Garcia-Rates    : C-PCM and meta-GGA Hessian, CCSD/C-PCM, Gaussian charge scheme 
  Tiago L. C. Gouveia    : GS-ROHF, GS-ROCIS                             
  Yang Guo               : DLPNO-NEVPT2, F12-NEVPT2, CIM, IAO-localization        
  Andreas Hansen         : Spin unrestricted coupled pair/coupled cluster methods 
  Ingolf Harden          : AUTO-CI MPn and infrastructure                
  Benjamin Helmich-Paris : MC-RPA, TRAH-(SCF,CASSCF), AVAS, COSX integrals, SCF dyn. polar. 
  Lee Huntington         : MR-EOM, pCC                                   
  Robert Izsak           : Overlap fitted RIJCOSX, COSX-SCS-MP3, EOM     
  Riya Kayal             : Wick's Theorem for AUTO-CI, AUTO-CI UHF-CCSDT 
  Emily Kempfer          : AUTO-CI, RHF CISDT and CCSDT                  
  Christian Kollmar      : KDIIS, OOCD, Brueckner-CCSD(T), CCSD density, CASPT2, CASPT2-K, improved NEVPT2 
  Axel Koslowski         : Symmetry handling                             
  Simone Kossmann        : meta-GGA functionals, TD-DFT gradient, OOMP2, (MP2 Hessian; deprecated post 5.0) 
  Lucas Lang             : DCDCAS                                        
  Marvin Lechner         : AUTO-CI (C++ implementation), FIC-MRCC        
  Spencer Leger          : CASSCF response                               
  Dagmar Lenk            : GEPOL surface, SMD, ORCA-2-JSON               
  Dimitrios Liakos       : Extrapolation schemes; Compound Job, initial MDCI parallelization 
  Dimitrios Manganas     : Further ROCIS development; embedding schemes. LFT, Crystal Embedding 
  Dimitrios Pantazis     : SARC Basis sets                               
  Anastasios Papadopoulos: AUTO-CI, single reference methods and gradients 
  Taras Petrenko         : pre 6.0 DFT Hessian and TD-DFT gradient, (ASA, deprecated), ECA, 1-Electron XAS/XES, NRVS 
  Peter Pinski           : DLPNO-MP2, DLPNO-MP2 Gradient                 
  Christoph Reimann      : Effective Core Potentials                     
  Marius Retegan         : Local ZFS, SOC                                
  Christoph Riplinger    : Optimizer, TS searches, QM/MM, DLPNO-CCSD(T), (RO)-DLPNO pert. Triples 
  Michael Roemelt        : Original ROCIS implementation                 
  Masaaki Saitow         : Open-shell DLPNO-CCSD energy and density      
  Barbara Sandhoefer     : DKH picture change effects                    
  Kantharuban Sivalingam : CASSCF convergence/infrastructure, NEVPT2 and variants, FIC-MRCI 
  Bernardo de Souza      : ESD, SOC TD-DFT                               
  Georgi L. Stoychev     : AutoAux, RI-MP2 NMR, DLPNO-MP2 response, X2C  
  Van Anh Tran           : RI-MP2 g-tensors                              
  Willem Van den Heuvel  : Paramagnetic NMR                              
  Zikuan Wang            : NOTCH, Electric field optimization            
  Frank Wennmohs         : Technical directorship and infrastructure     
  Hang Xu                : AUTO-CI-Response properties                   
                                                                         
[FACCTs GmbH]                                                            
  Markus Bursch, Miquel Garcia-Rates, Christoph Riplinger, Bernardo de Souza, Georgi L. Stoychev 
                                                                 
  APM, Basis sets (HGBS, AHGBS, def-TZVP (Ac-Lr), def2-XVPD (La-Lu)), CI-OPT, improved COSX, DLPNO-Multilevel,           
  DOCKER, DRACO, updates on ESD, GOAT, IRC, LR-CPCM, MBIS, meta-GGA TD-DFT gradient, ML-optimized integration grids, 
  MM, NACMEs, nearIR, NEB, NEB-TS, NL-DFT gradient (VV10), 2- and 3-layer-ONIOM, interface openCOSMO-RS, QMMM,   
  Crystal-QMMM, SF, symmetry and pop. for TD-DFT, r2SCAN hybrids, SOLVATOR                                   
                                                                         
[Other institutions]                                                     
  V. Asgeirsson          : NEB                                           
  Christoph Bannwarth    : sTDA-DFT, sTD-DFT, PBEh-3c, B97-3c, D3        
  Sebastian Ehlert       : rSCAN, r2SCAN, r2SCAN-3c, D4, dhf basis sets  
  Marvin Friede          : D4 for Fr, Ra, Ac-Lr                          
  Lars Goerigk           : TD-DFT with DH, B97 family of functionals     
  Stefan Grimme          : VdW corrections, initial TS optimization, DFT functionals, gCP, sTDA/sTD-DF 
  Waldemar Hujo          : DFT-NL                                        
  H. Jonsson             : NEB                                           
  Holger Kruse           : gCP                                           
  Marcel Mueller         : wB97X-3c, vDZP basis set                      
  Hagen Neugebauer       : wr2SCAN                                       
  Tobias Risthaus        : range-separated hybrid DFT                    
  Lukas Wittmann         : regularized MP2, r2SCAN double-hybrids, wr2SCAN        
                                                                         
We gratefully acknowledge several colleagues who have allowed us to      
interface, adapt or use parts of their codes:                            
  Ed Valeev, F. Pavosevic, A. Kumar             : LibInt (2-el integral package), F12 methods 
  Garnet Chan, S. Sharma, J. Yang, R. Olivares  : DMRG                   
  Ulf Ekstrom                                   : XCFun DFT Library      
  Mihaly Kallay                                 : mrcc  (arbitrary order and MRCC methods)
  Frank Weinhold                                : gennbo (NPA and NBO analysis)           
  Simon Mueller                                 : openCOSMO-RS                            
  Christopher J. Cramer and Donald G. Truhlar   : smd solvation model                     
  S Lehtola, MJT Oliveira, MAL Marques          : LibXC Library                           
  Liviu Ungur et al                             : ANISO software                          


 Your calculation uses the libint2 library for the computation of 2-el integrals
 For citations please refer to: http://libint.valeyev.net

 Your ORCA version has been built with support for libXC version: 6.2.2
 For citations please refer to: https://libxc.gitlab.io

 This ORCA versions uses:
   CBLAS   interface :  Fast vector & matrix operations
   LAPACKE interface :  Fast linear algebra routines
   SCALAPACK package :  Parallel linear algebra routines
   Shared memory     :  Shared parallel matrices
   BLAS/LAPACK       :  OpenBLAS 0.3.27  USE64BITINT DYNAMIC_ARCH NO_AFFINITY SkylakeX SINGLE_THREADED
        Core in use  :  SkylakeX
   Copyright (c) 2011-2014, The OpenBLAS Project


NOTE: MaxCore=5000 MB was set to SCF,MP2,MDCI,CIPSI,MRCI and CIS
      => If you want to overwrite this, your respective input block should be placed after the MaxCore statement
Warning: RI is on but no J-basis has been assigned. Assigning Def2/J (nothing to worry about!)
================================================================================

----- Orbital basis set information -----
Your calculation utilizes the basis: def2-TZVP
   F. Weigend and R. Ahlrichs, Phys. Chem. Chem. Phys. 7, 3297 (2005).

----- AuxJ basis set information -----
Your calculation utilizes the auxiliary basis: def2/J
   F. Weigend, Phys. Chem. Chem. Phys. 8, 1057 (2006).

================================================================================
                                        WARNINGS
                       Please study these warnings very carefully!
================================================================================


================================================================================
                                       INPUT FILE
================================================================================
NAME = honokiol2-opt_FEC.inp
|  1> ! B3LYP def2-TZVP TightSCF CPCM(water) Freq
|  2> 
|  3> %maxcore 5000
|  4> 
|  5> %pal
|  6> nprocs 25
|  7> end
|  8> 
|  9> * xyz 0 1
| 10> O           1.56925132208646      1.73146329795256      2.26339267307623
| 11>   O          -3.67103881381609     -1.78396674684408      2.24919568240394
| 12>   C           1.32298214750540      0.15813177817813      0.41244170819831
| 13>   C           0.01026992218601     -0.35715263102463      0.88066709912023
| 14>   C          -2.36204708261546     -0.78977647212764      0.45531954565843
| 15>   C          -1.11479017457772     -0.31582183056675      0.05372457907485
| 16>   C           3.13777935572227      0.06760706975248     -1.22915047093636
| 17>   C           1.89178328608903     -0.34252416533483     -0.76145635854118
| 18>   C           2.03050731405997      1.14262913568656      1.12767866682581
| 19>   C          -0.13609279905636     -0.92391087479348      2.15003482413752
| 20>   C          -2.47206312298177     -1.34525329562248      1.73771784752254
| 21>   C          -3.56880435061691     -0.66444354841807     -0.45273250152919
| 22>   C           3.72300519123121     -0.51977587943278     -2.49994287598414
| 23>   C           3.82673380288089      1.02301911509640     -0.48352774522334
| 24>   C          -1.36042228456200     -1.42152720810639      2.56972774508222
| 25>   C           3.28103388153744      1.55711767282999      0.67401631009486
| 26>   C          -4.22421413155372     -1.98077492628773     -0.78130137904200
| 27>   C           2.91192762594487     -0.21446696844266     -3.72903572697175
| 28>   C          -5.50923916201718     -2.26582563542799     -0.58746124541235
| 29>   C           2.40237708369532     -1.12071109497327     -4.55506659877773
| 30>   H          -1.02266738422436      0.13076146343937     -0.92977814064230
| 31>   H           1.34379380613431     -1.09859688785206     -1.31304991894630
| 32>   H           0.71893096817106     -0.98759819233246      2.81102037673529
| 33>   H          -4.31096569981778      0.00634830650246     -0.00608647870050
| 34>   H          -3.24415115181367     -0.19087736645252     -1.38353423329186
| 35>   H           3.83031433194644     -1.60467295040337     -2.40185400108893
| 36>   H           4.73297255457291     -0.11739316574841     -2.63161022118056
| 37>   H           4.80270232246709      1.36111096795762     -0.81368149477096
| 38>   H          -1.46803873498969     -1.87987692977737      3.54473428014979
| 39>   H           3.80528949588293      2.31607526262915      1.24052339530852
| 40>   H          -3.57065985787195     -2.74012220185047     -1.20342210391636
| 41>   H           2.74099014027708      0.84093428089240     -3.92765056945250
| 42>   H           0.60856875158055      1.64263749729515      2.36699536143964
| 43>   H          -4.26227907495831     -2.04122828048572      1.52540067029337
| 44>   H          -5.92260738968931     -3.23108895139129     -0.85125228907245
| 45>   H          -6.19906749750153     -1.53394745339190     -0.17882590813283
| 46>   H           1.82870563313175     -0.83492271959328     -5.42810316091907
| 47>   H           2.54508357275352     -2.18357786196266     -4.39030258653011
| 48>   H          -5.18160095169991      0.83661286613300      3.39103768289815
| 49>   H          -3.56572127683955     -0.34800708850068      4.75883281321729
| 50>   O          -2.24043083840206      1.23182418602842      4.61761028598793
| 51>   C          -3.55422763514577      0.73179580239404      4.90443445580048
| 52>   C          -4.43171102580495      1.44986286625846      3.88505592719887
| 53>   C          -2.24369105284293      1.85875957579859      3.42854626620275
| 54>   O          -1.29016003444481      2.29030360260618      2.86627729730657
| 55>   O          -3.51945712775260      1.92885970602518      2.93553582011413
| 56>   F          -5.07959408208480      2.51980255730538      4.46300717290054
| 57>   H          -3.82160566877522      0.99266332518347      5.92574865541446
| 58> *
| 59> 
| 60>                          ****END OF INPUT****
================================================================================

                       ****************************
                       * Single Point Calculation *
                       ****************************

---------------------------------
CARTESIAN COORDINATES (ANGSTROEM)
---------------------------------
  O      1.569251    1.731463    2.263393
  O     -3.671039   -1.783967    2.249196
  C      1.322982    0.158132    0.412442
  C      0.010270   -0.357153    0.880667
  C     -2.362047   -0.789776    0.455320
  C     -1.114790   -0.315822    0.053725
  C      3.137779    0.067607   -1.229150
  C      1.891783   -0.342524   -0.761456
  C      2.030507    1.142629    1.127679
  C     -0.136093   -0.923911    2.150035
  C     -2.472063   -1.345253    1.737718
  C     -3.568804   -0.664444   -0.452733
  C      3.723005   -0.519776   -2.499943
  C      3.826734    1.023019   -0.483528
  C     -1.360422   -1.421527    2.569728
  C      3.281034    1.557118    0.674016
  C     -4.224214   -1.980775   -0.781301
  C      2.911928   -0.214467   -3.729036
  C     -5.509239   -2.265826   -0.587461
  C      2.402377   -1.120711   -4.555067
  H     -1.022667    0.130761   -0.929778
  H      1.343794   -1.098597   -1.313050
  H      0.718931   -0.987598    2.811020
  H     -4.310966    0.006348   -0.006086
  H     -3.244151   -0.190877   -1.383534
  H      3.830314   -1.604673   -2.401854
  H      4.732973   -0.117393   -2.631610
  H      4.802702    1.361111   -0.813681
  H     -1.468039   -1.879877    3.544734
  H      3.805289    2.316075    1.240523
  H     -3.570660   -2.740122   -1.203422
  H      2.740990    0.840934   -3.927651
  H      0.608569    1.642637    2.366995
  H     -4.262279   -2.041228    1.525401
  H     -5.922607   -3.231089   -0.851252
  H     -6.199067   -1.533947   -0.178826
  H      1.828706   -0.834923   -5.428103
  H      2.545084   -2.183578   -4.390303
  H     -5.181601    0.836613    3.391038
  H     -3.565721   -0.348007    4.758833
  O     -2.240431    1.231824    4.617610
  C     -3.554228    0.731796    4.904434
  C     -4.431711    1.449863    3.885056
  C     -2.243691    1.858760    3.428546
  O     -1.290160    2.290304    2.866277
  O     -3.519457    1.928860    2.935536
  F     -5.079594    2.519803    4.463007
  H     -3.821606    0.992663    5.925749

----------------------------
CARTESIAN COORDINATES (A.U.)
----------------------------
  NO LB      ZA    FRAG     MASS         X           Y           Z
   0 O     8.0000    0    15.999    2.965455    3.271991    4.277192
   1 O     8.0000    0    15.999   -6.937258   -3.371209    4.250364
   2 C     6.0000    0    12.011    2.500074    0.298826    0.779402
   3 C     6.0000    0    12.011    0.019407   -0.674921    1.664220
   4 C     6.0000    0    12.011   -4.463622   -1.492461    0.860429
   5 C     6.0000    0    12.011   -2.106648   -0.596817    0.101525
   6 C     6.0000    0    12.011    5.929544    0.127759   -2.322758
   7 C     6.0000    0    12.011    3.574952   -0.647277   -1.438944
   8 C     6.0000    0    12.011    3.837103    2.159256    2.131004
   9 C     6.0000    0    12.011   -0.257178   -1.745939    4.062977
  10 C     6.0000    0    12.011   -4.671522   -2.542160    3.283811
  11 C     6.0000    0    12.011   -6.744063   -1.255616   -0.855540
  12 C     6.0000    0    12.011    7.035460   -0.982234   -4.724207
  13 C     6.0000    0    12.011    7.231479    1.933226   -0.913735
  14 C     6.0000    0    12.011   -2.570826   -2.686297    4.856082
  15 C     6.0000    0    12.011    6.200255    2.942526    1.273706
  16 C     6.0000    0    12.011   -7.982608   -3.743122   -1.476446
  17 C     6.0000    0    12.011    5.502746   -0.405284   -7.046856
  18 C     6.0000    0    12.011  -10.410953   -4.281790   -1.110141
  19 C     6.0000    0    12.011    4.539835   -2.117837   -8.607828
  20 H     1.0000    0     1.008   -1.932561    0.247103   -1.757026
  21 H     1.0000    0     1.008    2.539402   -2.076047   -2.481305
  22 H     1.0000    0     1.008    1.358583   -1.866290    5.312059
  23 H     1.0000    0     1.008   -8.146545    0.011997   -0.011502
  24 H     1.0000    0     1.008   -6.130557   -0.360706   -2.614501
  25 H     1.0000    0     1.008    7.238245   -3.032392   -4.538846
  26 H     1.0000    0     1.008    8.944022   -0.221841   -4.973023
  27 H     1.0000    0     1.008    9.075792    2.572127   -1.537635
  28 H     1.0000    0     1.008   -2.774191   -3.552453    6.698577
  29 H     1.0000    0     1.008    7.190955    4.376748    2.344249
  30 H     1.0000    0     1.008   -6.747569   -5.178081   -2.274138
  31 H     1.0000    0     1.008    5.179721    1.589135   -7.422184
  32 H     1.0000    0     1.008    1.150028    3.104135    4.472973
  33 H     1.0000    0     1.008   -8.054540   -3.857362    2.882590
  34 H     1.0000    0     1.008  -11.192106   -6.105873   -1.608634
  35 H     1.0000    0     1.008  -11.714540   -2.898741   -0.337932
  36 H     1.0000    0     1.008    3.455753   -1.577775  -10.257628
  37 H     1.0000    0     1.008    4.809511   -4.126364   -8.296470
  38 H     1.0000    0     1.008   -9.791807    1.580969    6.408133
  39 H     1.0000    0     1.008   -6.738237   -0.657638    8.992891
  40 O     8.0000    0    15.999   -4.233801    2.327810    8.726019
  41 C     6.0000    0    12.011   -6.716517    1.382894    9.268038
  42 C     6.0000    0    12.011   -8.374720    2.739844    7.341692
  43 C     6.0000    0    12.011   -4.239962    3.512547    6.479013
  44 O     8.0000    0    15.999   -2.438049    4.328047    5.416479
  45 O     8.0000    0    15.999   -6.650810    3.645017    5.547359
  46 F     9.0000    0    18.998   -9.599042    4.761737    8.433861
  47 H     1.0000    0     1.008   -7.221788    1.875862   11.198042

--------------------------------
INTERNAL COORDINATES (ANGSTROEM)
--------------------------------
 O      0   0   0     0.000000000000     0.00000000     0.00000000
 O      1   0   0     6.310236973588     0.00000000     0.00000000
 C      1   2   0     2.441728906297    63.61308621     0.00000000
 C      3   1   2     1.485922752223    94.22544901     0.17120831
 C      2   1   3     2.433077320735    47.71979614   324.61351859
 C      5   2   1     1.393399194090   146.41381083    24.73127240
 C      3   1   2     2.448776942145   117.20970624   181.01526947
 C      7   3   1     1.392641956249    28.68035440   181.93562695
 C      1   2   3     1.359900387814    92.21048459   359.02246609
 C      4   3   1     1.397830953429   121.28215125   302.25218972
 C      2   1   3     1.375362415900    25.73557429   358.24021708
 C      5   2   1     1.515430620663    92.70331933   208.69197553
 C      7   3   1     1.517373172383   149.49389428   180.45895457
 C      7   3   1     1.394067306749    88.98982915     1.65434728
 C     10   4   3     1.386631476691   120.85123541   181.04594257
 C     14   7   3     1.386707580397   121.06087685   359.05909172
 C     12   5   2     1.506734145290   113.87853953   299.46694778
 C     13   7   3     1.503904779030   113.44486449    64.28003970
 C     17  12   5     1.330457527734   125.13730007   125.20748093
 C     18  13   7     1.327873176608   125.22587754   237.04513823
 H      6   5   2     1.084066809140   118.53299755   183.64339226
 H      8   7   3     1.084524728974   119.11588345   181.47209549
 H     10   4   3     1.082600396121   119.70922465     0.26766525
 H     12   5   2     1.095562800840   110.23022732    62.61184981
 H     12   5   2     1.093643676911   108.02347183   178.52597741
 H     13   7   3     1.094595054648   110.26950849   301.56343076
 H     13   7   3     1.095117442596   108.30967048   185.35077197
 H     14   7   3     1.084353332883   119.71217191   179.43092497
 H     15  10   4     1.082729657478   120.81286804   178.65743214
 H     16  14   7     1.082492886759   121.08484847   181.46484770
 H     17  12   5     1.087164835672   115.68211734   305.56028999
 H     18  13   7     1.087446217869   115.53565744    56.66887433
 H      1   2   3     0.970327027951    29.19713725   135.19694062
 H      2   1   3     0.969343985716   130.99944976   318.57991280
 H     19  17  12     1.082678288093   121.61984069   179.58564554
 H     19  17  12     1.085583550286   121.61068584     1.04900003
 H     20  18  13     1.083035903158   121.64274422   180.24192928
 H     20  18  13     1.084987597220   121.57573999   359.93281535
 H      2   1   3     3.233115932727    86.31035474   216.96512251
 H     39   2   1     2.425954467641    59.47753661   291.49957022
 O     40  39   2     2.066931398085    90.87812512   110.63956923
 C     40  39   2     1.089635822331    66.32558696   144.40970878
 C     39   2   1     1.087411830593   107.17913133   335.69092463
 C     41  40  39     1.344221654004   114.54226183   323.85281293
 O     44  41  40     1.188106915856   125.87928929   217.96091820
 O     44  41  40     1.369508089096   110.15561102    37.58604036
 F     43  39   2     1.377879181750   107.71118086   184.44455201
 H     42  40  39     1.087485894919   111.13806022   117.42234500

---------------------------
INTERNAL COORDINATES (A.U.)
---------------------------
 O      0   0   0     0.000000000000     0.00000000     0.00000000
 O      1   0   0    11.924619720226     0.00000000     0.00000000
 C      1   2   0     4.614198926181    63.61308621     0.00000000
 C      3   1   2     2.807987057864    94.22544901     0.17120831
 C      2   1   3     4.597849798845    47.71979614   324.61351859
 C      5   2   1     2.633142872056   146.41381083    24.73127240
 C      3   1   2     4.627517783716   117.20970624   181.01526947
 C      7   3   1     2.631711899919    28.68035440   181.93562695
 C      1   2   3     2.569839302382    92.21048459   359.02246609
 C      4   3   1     2.641517683499   121.28215125   302.25218972
 C      2   1   3     2.599058300939    25.73557429   358.24021708
 C      5   2   1     2.863748848010    92.70331933   208.69197553
 C      7   3   1     2.867419738763   149.49389428   180.45895457
 C      7   3   1     2.634405422010    88.98982915     1.65434728
 C     10   4   3     2.620353739620   120.85123541   181.04594257
 C     14   7   3     2.620497554782   121.06087685   359.05909172
 C     12   5   2     2.847314891225   113.87853953   299.46694778
 C     13   7   3     2.841968163862   113.44486449    64.28003970
 C     17  12   5     2.514200360232   125.13730007   125.20748093
 C     18  13   7     2.509316644369   125.22587754   237.04513823
 H      6   5   2     2.048589380148   118.53299755   183.64339226
 H      8   7   3     2.049454723226   119.11588345   181.47209549
 H     10   4   3     2.045818261144   119.70922465     0.26766525
 H     12   5   2     2.070313656099   110.23022732    62.61184981
 H     12   5   2     2.066687037456   108.02347183   178.52597741
 H     13   7   3     2.068484880829   110.26950849   301.56343076
 H     13   7   3     2.069472050987   108.30967048   185.35077197
 H     14   7   3     2.049130831554   119.71217191   179.43092497
 H     15  10   4     2.046062529708   120.81286804   178.65743214
 H     16  14   7     2.045615097892   121.08484847   181.46484770
 H     17  12   5     2.054443801849   115.68211734   305.56028999
 H     18  13   7     2.054975537141   115.53565744    56.66887433
 H      1   2   3     1.833652343169    29.19713725   135.19694062
 H      2   1   3     1.831794662566   130.99944976   318.57991280
 H     19  17  12     2.045965455639   121.61984069   179.58564554
 H     19  17  12     2.051455605530   121.61068584     1.04900003
 H     20  18  13     2.046641250173   121.64274422   180.24192928
 H     20  18  13     2.050329417447   121.57573999   359.93281535
 H      2   1   3     6.109703672071    86.31035474   216.96512251
 H     39   2   1     4.584389557204    59.47753661   291.49957022
 O     40  39   2     3.905934279984    90.87812512   110.63956923
 C     40  39   2     2.059113289916    66.32558696   144.40970878
 C     39   2   1     2.054910554608   107.17913133   335.69092463
 C     41  40  39     2.540210789353   114.54226183   323.85281293
 O     44  41  40     2.245196688785   125.87928929   217.96091820
 O     44  41  40     2.587995226582   110.15561102    37.58604036
 F     43  39   2     2.603814299139   107.71118086   184.44455201
 H     42  40  39     2.055050515898   111.13806022   117.42234500

---------------------
BASIS SET INFORMATION
---------------------
There are 4 groups of distinct atoms

 Group   1 Type O   : 11s6p2d1f contracted to 5s3p2d1f pattern {62111/411/11/1}
 Group   2 Type C   : 11s6p2d1f contracted to 5s3p2d1f pattern {62111/411/11/1}
 Group   3 Type H   : 5s1p contracted to 3s1p pattern {311/1}
 Group   4 Type F   : 11s6p2d1f contracted to 5s3p2d1f pattern {62111/411/11/1}

Atom   0O    basis set group =>   1
Atom   1O    basis set group =>   1
Atom   2C    basis set group =>   2
Atom   3C    basis set group =>   2
Atom   4C    basis set group =>   2
Atom   5C    basis set group =>   2
Atom   6C    basis set group =>   2
Atom   7C    basis set group =>   2
Atom   8C    basis set group =>   2
Atom   9C    basis set group =>   2
Atom  10C    basis set group =>   2
Atom  11C    basis set group =>   2
Atom  12C    basis set group =>   2
Atom  13C    basis set group =>   2
Atom  14C    basis set group =>   2
Atom  15C    basis set group =>   2
Atom  16C    basis set group =>   2
Atom  17C    basis set group =>   2
Atom  18C    basis set group =>   2
Atom  19C    basis set group =>   2
Atom  20H    basis set group =>   3
Atom  21H    basis set group =>   3
Atom  22H    basis set group =>   3
Atom  23H    basis set group =>   3
Atom  24H    basis set group =>   3
Atom  25H    basis set group =>   3
Atom  26H    basis set group =>   3
Atom  27H    basis set group =>   3
Atom  28H    basis set group =>   3
Atom  29H    basis set group =>   3
Atom  30H    basis set group =>   3
Atom  31H    basis set group =>   3
Atom  32H    basis set group =>   3
Atom  33H    basis set group =>   3
Atom  34H    basis set group =>   3
Atom  35H    basis set group =>   3
Atom  36H    basis set group =>   3
Atom  37H    basis set group =>   3
Atom  38H    basis set group =>   3
Atom  39H    basis set group =>   3
Atom  40O    basis set group =>   1
Atom  41C    basis set group =>   2
Atom  42C    basis set group =>   2
Atom  43C    basis set group =>   2
Atom  44O    basis set group =>   1
Atom  45O    basis set group =>   1
Atom  46F    basis set group =>   4
Atom  47H    basis set group =>   3
---------------------------------
AUXILIARY/J BASIS SET INFORMATION
---------------------------------
There are 4 groups of distinct atoms

 Group   1 Type O   : 12s5p4d2f1g contracted to 6s4p3d1f1g pattern {711111/2111/211/2/1}
 Group   2 Type C   : 12s5p4d2f1g contracted to 6s4p3d1f1g pattern {711111/2111/211/2/1}
 Group   3 Type H   : 5s2p1d contracted to 3s1p1d pattern {311/2/1}
 Group   4 Type F   : 12s5p4d2f1g contracted to 6s4p3d1f1g pattern {711111/2111/211/2/1}

Atom   0O    basis set group =>   1
Atom   1O    basis set group =>   1
Atom   2C    basis set group =>   2
Atom   3C    basis set group =>   2
Atom   4C    basis set group =>   2
Atom   5C    basis set group =>   2
Atom   6C    basis set group =>   2
Atom   7C    basis set group =>   2
Atom   8C    basis set group =>   2
Atom   9C    basis set group =>   2
Atom  10C    basis set group =>   2
Atom  11C    basis set group =>   2
Atom  12C    basis set group =>   2
Atom  13C    basis set group =>   2
Atom  14C    basis set group =>   2
Atom  15C    basis set group =>   2
Atom  16C    basis set group =>   2
Atom  17C    basis set group =>   2
Atom  18C    basis set group =>   2
Atom  19C    basis set group =>   2
Atom  20H    basis set group =>   3
Atom  21H    basis set group =>   3
Atom  22H    basis set group =>   3
Atom  23H    basis set group =>   3
Atom  24H    basis set group =>   3
Atom  25H    basis set group =>   3
Atom  26H    basis set group =>   3
Atom  27H    basis set group =>   3
Atom  28H    basis set group =>   3
Atom  29H    basis set group =>   3
Atom  30H    basis set group =>   3
Atom  31H    basis set group =>   3
Atom  32H    basis set group =>   3
Atom  33H    basis set group =>   3
Atom  34H    basis set group =>   3
Atom  35H    basis set group =>   3
Atom  36H    basis set group =>   3
Atom  37H    basis set group =>   3
Atom  38H    basis set group =>   3
Atom  39H    basis set group =>   3
Atom  40O    basis set group =>   1
Atom  41C    basis set group =>   2
Atom  42C    basis set group =>   2
Atom  43C    basis set group =>   2
Atom  44O    basis set group =>   1
Atom  45O    basis set group =>   1
Atom  46F    basis set group =>   4
Atom  47H    basis set group =>   3
--------------------------------------------------------------------------
WARNING: There was an error initializing an OpenFabrics device.

  Local host:   ga00
  Local device: mlx5_0
--------------------------------------------------------------------------


           ************************************************************
           *        Program running with 25 parallel MPI-processes    *
           *              working on a common directory               *
           ************************************************************
------------------------------------------------------------------------------
                             ORCA STARTUP CALCULATIONS
                           -- RI-GTO INTEGRALS CHOSEN --
------------------------------------------------------------------------------
------------------------------------------------------------------------------
                   ___                                                        
                  /   \      - P O W E R E D   B Y -                         
                 /     \                                                     
                 |  |  |   _    _      __       _____    __    __             
                 |  |  |  | |  | |    /  \     |  _  \  |  |  /  |          
                  \  \/   | |  | |   /    \    | | | |  |  | /  /          
                 / \  \   | |__| |  /  /\  \   | |_| |  |  |/  /          
                |  |  |   |  __  | /  /__\  \  |    /   |      \           
                |  |  |   | |  | | |   __   |  |    \   |  |\   \          
                \     /   | |  | | |  |  |  |  | |\  \  |  | \   \       
                 \___/    |_|  |_| |__|  |__|  |_| \__\ |__|  \__/        
                                                                              
                      - O R C A' S   B I G   F R I E N D -                    
                                      &                                       
                       - I N T E G R A L  F E E D E R -                       
                                                                              
 v1 FN, 2020, v2 2021, v3 2022-2024                                           
------------------------------------------------------------------------------


----------------------
SHARK INTEGRAL PACKAGE
----------------------

Number of atoms                             ...     48
Number of basis functions                   ...    963
Number of shells                            ...    381
Maximum angular momentum                    ...      3
Integral batch strategy                     ... SHARK/LIBINT Hybrid
RI-J (if used) integral strategy            ... SPLIT-RIJ (Revised 2003 algorithm where possible)
Printlevel                                  ...      1
Contraction scheme used                     ... SEGMENTED contraction
Prescreening option                         ... SCHWARTZ
   Thresh                                   ... 2.500e-11
   Tcut                                     ... 2.500e-12
   Tpresel                                  ... 2.500e-12 
Coulomb Range Separation                    ... NOT USED
Exchange Range Separation                   ... NOT USED
Multipole approximations                    ... NOT USED
Finite Nucleus Model                        ... NOT USED
CABS basis                                  ... NOT available
Auxiliary Coulomb fitting basis             ... AVAILABLE
   # of basis functions in Aux-J            ...   1554
   # of shells in Aux-J                     ...    510
   Maximum angular momentum in Aux-J        ...      4
Auxiliary J/K fitting basis                 ... NOT available
Auxiliary Correlation fitting basis         ... NOT available
Auxiliary 'external' fitting basis          ... NOT available

Checking pre-screening integrals            ... done (  0.0 sec) Dimension = 381
Check shell pair data                       ... done (  0.0 sec)
Shell pair information
Shell pair cut-off parameter TPreSel        ...   2.5e-12
Total number of shell pairs                 ...     72771
Shell pairs after pre-screening             ...     45085
Total number of primitive shell pairs       ...    222768
Primitive shell pairs kept                  ...     89405
          la=0 lb=0:  11811 shell pairs
          la=1 lb=0:  13211 shell pairs
          la=1 lb=1:   3718 shell pairs
          la=2 lb=0:   6285 shell pairs
          la=2 lb=1:   3591 shell pairs
          la=2 lb=2:    874 shell pairs
          la=3 lb=0:   2904 shell pairs
          la=3 lb=1:   1714 shell pairs
          la=3 lb=2:    782 shell pairs
          la=3 lb=3:    195 shell pairs

Calculating one electron integrals          ... done (  0.1 sec)
Calculating RI/J V-Matrix + Cholesky decomp.... done (  0.1 sec)
Calculating Nuclear repulsion               ... done (  0.0 sec) ENN=   2438.325629453176 Eh

Diagonalization of the overlap matrix:
Smallest eigenvalue                        ... 5.661e-06
Time for diagonalization                   ...    0.141 sec
Threshold for overlap eigenvalues          ... 1.000e-07
Number of eigenvalues below threshold      ... 0
Time for construction of square roots      ...    0.067 sec
Total time needed                          ...    0.216 sec

-------------------
DFT GRID GENERATION
-------------------

General Integration Accuracy     IntAcc      ... 4.388
Radial Grid Type                 RadialGrid  ... OptM3 with GC (2021)
Angular Grid (max. ang.)         AngularGrid ... 4 (Lebedev-302)
Angular grid pruning method      GridPruning ... 4 (adaptive)
Weight generation scheme         WeightScheme... mBecke (2022)
Basis function cutoff            BFCut       ... 1.0000e-11
Integration weight cutoff        WCut        ... 1.0000e-14
Partially contracted basis set               ... off
Rotationally invariant grid construction     ... off
Angular grids for H and He will be reduced by one unit

Total number of grid points                  ...   228387
Total number of batches                      ...     3593
Average number of points per batch           ...       63
Average number of grid points per atom       ...     4758

--------------------
COSX GRID GENERATION
--------------------

GRIDX 1
-------
General Integration Accuracy     IntAcc      ... 3.816
Radial Grid Type                 RadialGrid  ... OptM3 with GC (2021)
Angular Grid (max. ang.)         AngularGrid ... 1 (Lebedev-50)
Angular grid pruning method      GridPruning ... 4 (adaptive)
Weight generation scheme         WeightScheme... mBecke (2022)
Basis function cutoff            BFCut       ... 1.0000e-11
Integration weight cutoff        WCut        ... 1.0000e-14
Partially contracted basis set               ... on
Rotationally invariant grid construction     ... off
Angular grids for H and He will be reduced by one unit

Total number of grid points                  ...    28925
Total number of batches                      ...      256
Average number of points per batch           ...      112
Average number of grid points per atom       ...      603
UseSFitting                                  ... on

GRIDX 2
-------
General Integration Accuracy     IntAcc      ... 4.020
Radial Grid Type                 RadialGrid  ... OptM3 with GC (2021)
Angular Grid (max. ang.)         AngularGrid ... 2 (Lebedev-110)
Angular grid pruning method      GridPruning ... 4 (adaptive)
Weight generation scheme         WeightScheme... mBecke (2022)
Basis function cutoff            BFCut       ... 1.0000e-11
Integration weight cutoff        WCut        ... 1.0000e-14
Partially contracted basis set               ... on
Rotationally invariant grid construction     ... off
Angular grids for H and He will be reduced by one unit

Total number of grid points                  ...    62798
Total number of batches                      ...      516
Average number of points per batch           ...      121
Average number of grid points per atom       ...     1308
UseSFitting                                  ... on

GRIDX 3
-------
General Integration Accuracy     IntAcc      ... 4.338
Radial Grid Type                 RadialGrid  ... OptM3 with GC (2021)
Angular Grid (max. ang.)         AngularGrid ... 3 (Lebedev-194)
Angular grid pruning method      GridPruning ... 4 (adaptive)
Weight generation scheme         WeightScheme... mBecke (2022)
Basis function cutoff            BFCut       ... 1.0000e-11
Integration weight cutoff        WCut        ... 1.0000e-14
Partially contracted basis set               ... on
Rotationally invariant grid construction     ... off
Angular grids for H and He will be reduced by one unit

Total number of grid points                  ...   137192
Total number of batches                      ...     1096
Average number of points per batch           ...      125
Average number of grid points per atom       ...     2858
UseSFitting                                  ... on
Initializing property integral containers    ... done (  0.0 sec)

SHARK setup successfully completed in   3.2 seconds

Maximum memory used throughout the entire STARTUP-calculation: 99.3 MB
[ga00:3440983] 24 more processes have sent help message help-mpi-btl-openib.txt / error in device init
[ga00:3440983] Set MCA parameter "orte_base_help_aggregate" to 0 to see all help / error messages
--------------------------------------------------------------------------
WARNING: There was an error initializing an OpenFabrics device.

  Local host:   ga00
  Local device: mlx5_0
--------------------------------------------------------------------------


           ************************************************************
           *        Program running with 25 parallel MPI-processes    *
           *              working on a common directory               *
           ************************************************************
-------------------------------------------------------------------------------
                                 ORCA GUESS
                   Start orbitals & Density for SCF / CASSCF
-------------------------------------------------------------------------------

------------
SCF SETTINGS
------------
Hamiltonian:
 Density Functional     Method          .... DFT(GTOs)
 Exchange Functional    Exchange        .... B88
   X-Alpha parameter    XAlpha          ....  0.666667
   Becke's b parameter  XBeta           ....  0.004200
 Correlation Functional Correlation     .... LYP
 LDA part of GGA corr.  LDAOpt          .... VWN-5
 Gradients option       PostSCFGGA      .... off
 Hybrid DFT is turned on
   Fraction HF Exchange ScalHFX         ....  0.200000
   Scaling of DF-GGA-X  ScalDFX         ....  0.720000
   Scaling of DF-GGA-C  ScalDFC         ....  0.810000
   Scaling of DF-LDA-C  ScalLDAC        ....  1.000000
   Perturbative correction              ....  0.000000
   NL short-range parameter             ....  4.800000
 RI-approximation to the Coulomb term is turned on
   Number of AuxJ basis functions       .... 1554
   RIJ-COSX (HFX calculated with COS-X)).... on


General Settings:
 Integral files         IntName         .... honokiol2-opt_FEC
 Hartree-Fock type      HFTyp           .... RHF
 Total Charge           Charge          ....    0
 Multiplicity           Mult            ....    1
 Number of Electrons    NEL             ....  196
 Basis Dimension        Dim             ....  963
 Nuclear Repulsion      ENuc            ....   2438.3256294532 Eh

Convergence Acceleration:
 AO-DIIS                CNVDIIS         .... on
   Start iteration      DIISMaxIt       ....    12
   Startup error        DIISStart       ....  0.200000
   # of expansion vecs  DIISMaxEq       ....     5
   Bias factor          DIISBfac        ....   1.050
   Max. coefficient     DIISMaxC        ....  10.000
 MO-DIIS                CNVKDIIS        .... off
 Trust-Rad. Augm. Hess. CNVTRAH         .... auto
   Auto Start mean grad. ratio tolernc. ....  1.125000
   Auto Start start iteration           ....    50
   Auto Start num. interpolation iter.  ....    10
   Max. Number of Micro iterations      ....    24
   Max. Number of Macro iterations      .... Maxiter - #DIIS iter
   Number of Davidson start vectors     ....     2
   Converg. threshold    (grad. norm)   ....   1.000e-05
   Grad. Scal. Fac. for Micro threshold ....   0.100
   Minimum threshold for Micro iter.    ....   1.000e-02
   NR start threshold (gradient norm)   ....   1.000e-04
   Initial trust radius                 ....   0.400
   Minimum AH scaling param. (alpha)    ....   1.000
   Maximum AH scaling param. (alpha)    .... 1000.000
   Quad. conv. algorithm                .... NR
   White noise on init. David. guess    .... on
   Maximum white noise                  ....   0.010
   Pseudo random numbers                .... off
   Inactive MOs                         .... canonical
   Orbital update algorithm             .... Taylor
   Preconditioner                       .... Diag
   Full preconditioner red. dimension   ....   250
 SOSCF                  CNVSOSCF        .... on
   Start iteration      SOSCFMaxIt      ....   150
   Startup grad/error   SOSCFStart      ....  0.003300
   Hessian update       SOSCFHessUp     .... L-BFGS
 Level Shifting         CNVShift        .... on
   Level shift para.    LevelShift      ....    0.2500
   Turn off err/grad.   ShiftErr        ....    0.0010
 Zerner damping         CNVZerner       .... off
 Static damping         CNVDamp         .... on
   Fraction old density DampFac         ....    0.7000
   Max. Damping (<1)    DampMax         ....    0.9800
   Min. Damping (>=0)   DampMin         ....    0.0000
   Turn off err/grad.   DampErr         ....    0.1000

SCF Procedure:
 Maximum # iterations   MaxIter         ....   125
 SCF integral mode      SCFMode         .... Direct
   Integral package                     .... SHARK and LIBINT hybrid scheme
 Reset frequency        DirectResetFreq ....    20
 Integral Threshold     Thresh          ....  2.500e-11 Eh
 Primitive CutOff       TCut            ....  2.500e-12 Eh

Convergence Tolerance:
 Convergence Check Mode ConvCheckMode   .... Total+1el-Energy
 Convergence forced     ConvForced      .... 0
 Energy Change          TolE            ....  1.000e-08 Eh
 1-El. energy change                    ....  1.000e-05 Eh
 Orbital Gradient       TolG            ....  1.000e-05
 Orbital Rotation angle TolX            ....  1.000e-05
 DIIS Error             TolErr          ....  5.000e-07

------------------------------
INITIAL GUESS: MODEL POTENTIAL
------------------------------
Loading Hartree-Fock densities                     ... done
Calculating cut-offs                               ... done
Initializing the effective Hamiltonian             ... done
Setting up the integral package (SHARK)            ... done
Starting the Coulomb interaction                   ... done (   0.2 sec)
Making the grid                                    ... done (   0.2 sec)
Mapping shells                                     ... done
Starting the XC term evaluation                    ... done (   0.1 sec)
  promolecular density results
     # of electrons  =    196.002866866
     EX              =   -165.316745750
     EC              =     -6.727383806
     EX+EC           =   -172.044129556
Transforming the Hamiltonian                       ... done (   0.1 sec)
Diagonalizing the Hamiltonian                      ... done (   0.2 sec)
Back transforming the eigenvectors                 ... done (   0.0 sec)
Now organizing SCF variables                       ... done
                      ------------------
                      INITIAL GUESS DONE (   0.9 sec)
                      ------------------
             **** ENERGY FILE WAS UPDATED (honokiol2-opt_FEC.en.tmp) ****
Finished Guess after   1.7 sec
Maximum memory used throughout the entire GUESS-calculation: 81.8 MB
[ga00:3441139] 24 more processes have sent help message help-mpi-btl-openib.txt / error in device init
[ga00:3441139] Set MCA parameter "orte_base_help_aggregate" to 0 to see all help / error messages
--------------------------------------------------------------------------
WARNING: There was an error initializing an OpenFabrics device.

  Local host:   ga00
  Local device: mlx5_0
--------------------------------------------------------------------------


           ************************************************************
           *        Program running with 25 parallel MPI-processes    *
           *              working on a common directory               *
           ************************************************************

-------------------------------------------------------------------------------------------
                                      ORCA LEAN-SCF
                              memory conserving SCF solver
-------------------------------------------------------------------------------------------

--------------------
CPCM SOLVATION MODEL
--------------------
CPCM parameters:
  Epsilon                                         ...      80.1510
  Refrac                                          ...       1.3328
  Rsolv                                           ...       1.3000
  Surface type                                    ... GAUSSIAN VDW
  Discretization scheme                           ... Constant charge density
    Threshold for H atoms                         ...       5.0000 (charges/Ang^2)
    Threshold for non-H atoms                     ...       5.0000 (charges/Ang^2)
  Epsilon function type                           ...         CPCM
Solvent:                                          ... WATER
Radii:
  Scheme                                          ... Element-dependent radii
  Radius for O  used is    3.4469 Bohr (=   1.8240 Ang.)
  Radius for C  used is    3.8550 Bohr (=   2.0400 Ang.)
  Radius for H  used is    2.4944 Bohr (=   1.3200 Ang.)
  Radius for F  used is    3.3335 Bohr (=   1.7640 Ang.)
Calculating surface                               ...        done! (  0.0s)
Cavity surface points                             ...         4316
Cavity Volume                                     ...    2987.2627
Cavity Surface-area                               ...    1522.9231
Calculating surface distance matrix               ...        done! (  0.1s)
Performing Cholesky decomposition & store         ...        done! (  0.4s)
Overall time for CPCM initialization              ...                 0.5s

----------------------------------------D-I-I-S--------------------------------------------
Iteration    Energy (Eh)           Delta-E    RMSDP     MaxDP     DIISErr   Damp  Time(sec)
-------------------------------------------------------------------------------------------
               ***  Starting incremental Fock matrix formation  ***
[ga00:3441303] 24 more processes have sent help message help-mpi-btl-openib.txt / error in device init
[ga00:3441303] Set MCA parameter "orte_base_help_aggregate" to 0 to see all help / error messages
    1    -1287.9089758532263659     0.00e+00  1.26e-03  1.56e-01  2.93e-01  0.700   5.8
    2    -1288.2389306050090454    -3.30e-01  1.22e-03  1.85e-01  1.11e-01  0.700   3.8
                               ***Turning on AO-DIIS***
    3    -1288.3736429956534266    -1.35e-01  4.99e-04  6.42e-02  3.80e-02  0.700   3.5
    4    -1288.4542709028678473    -8.06e-02  6.98e-04  4.88e-02  1.93e-02  0.000   3.3
    5    -1288.6296275224804049    -1.75e-01  2.63e-04  4.13e-02  5.20e-03  0.000   3.4
                              *** Initializing SOSCF ***
---------------------------------------S-O-S-C-F--------------------------------------
Iteration    Energy (Eh)           Delta-E    RMSDP     MaxDP     MaxGrad    Time(sec)
--------------------------------------------------------------------------------------
    6    -1288.6305158981399472    -8.88e-04  9.46e-05  1.39e-02  1.75e-03     3.5
               *** Restarting incremental Fock matrix formation ***
    7    -1288.6305791451613914    -6.32e-05  7.38e-05  8.14e-03  1.78e-04     5.6
    8    -1288.6305784176865927     7.27e-07  1.20e-05  6.26e-04  3.00e-04     4.3
    9    -1288.6305849797631708    -6.56e-06  1.21e-05  1.28e-03  4.57e-05     3.7
   10    -1288.6305848807264738     9.90e-08  2.39e-06  2.88e-04  3.89e-05     3.6
   11    -1288.6305852266659713    -3.46e-07  3.46e-06  3.87e-04  1.27e-05     3.0
   12    -1288.6305852239711385     2.69e-09  1.38e-06  1.18e-04  1.29e-05     3.0
                 **** Energy Check signals convergence ****

               *****************************************************
               *                     SUCCESS                       *
               *           SCF CONVERGED AFTER  12 CYCLES          *
               *****************************************************

Recomputing exchange energy using gridx3       ... done (    7.518 sec)
Old exchange energy                            :    -33.537622876 Eh
New exchange energy                            :    -33.537651076 Eh
Exchange energy change after final integration :     -0.000028200 Eh
Total energy after final integration           :  -1288.630613424 Eh
             **** ENERGY FILE WAS UPDATED (honokiol2-opt_FEC.en.tmp) ****

----------------
TOTAL SCF ENERGY
----------------

Total Energy       :      -1288.63061342426681 Eh          -35065.42168 eV

Components:
Nuclear Repulsion  :       2438.32562945317613 Eh           66350.21356 eV
Electronic Energy  :      -3726.92766706212933 Eh         -101414.85765 eV
One Electron Energy:      -6606.25870210368885 Eh         -179765.43838 eV
Two Electron Energy:       2879.33103504155952 Eh           78350.58073 eV
CPCM Dielectric    :         -0.02854761501796 Eh              -0.77682 eV

Virial components:
Potential Energy   :      -2571.76838308023616 Eh          -69981.37549 eV
Kinetic Energy     :       1283.13776965596935 Eh           34915.95381 eV
Virial Ratio       :          2.00428079033927

DFT components:
N(Alpha)           :       98.000148853378 electrons
N(Beta)            :       98.000148853378 electrons
N(Total)           :      196.000297706756 electrons
E(X)               :     -133.338973496075 Eh       
E(C)               :       -7.927103661719 Eh       
E(XC)              :     -141.266077157794 Eh       

CPCM Solvation Model Properties:
Surface-charge          :         -0.03676604459025
Corrected charge        :         -0.00000000000000
Outlying charge corr.   :          0.00006495009256 Eh               0.00177 eV
Free-energy (cav+disp)  :  This term is not implemented in the current solvation scheme

---------------
SCF CONVERGENCE
---------------

  Last Energy change         ...   -2.6948e-09  Tolerance :   1.0000e-08
  Last MAX-Density change    ...    1.1751e-04  Tolerance :   1.0000e-07
  Last RMS-Density change    ...    1.3808e-06  Tolerance :   5.0000e-09
  Last DIIS Error            ...    1.7470e-03  Tolerance :   5.0000e-07
  Last Orbital Gradient      ...    1.2886e-05  Tolerance :   1.0000e-05
  Last Orbital Rotation      ...    2.1099e-05  Tolerance :   1.0000e-05


----------------
ORBITAL ENERGIES
----------------

  NO   OCC          E(Eh)            E(eV) 
   0   2.0000     -24.695733      -672.0051 
   1   2.0000     -19.208393      -522.6869 
   2   2.0000     -19.204227      -522.5736 
   3   2.0000     -19.152880      -521.1764 
   4   2.0000     -19.147913      -521.0412 
   5   2.0000     -19.145221      -520.9679 
   6   2.0000     -10.373714      -282.2831 
   7   2.0000     -10.328683      -281.0577 
   8   2.0000     -10.251598      -278.9602 
   9   2.0000     -10.234662      -278.4993 
  10   2.0000     -10.232064      -278.4286 
  11   2.0000     -10.184760      -277.1414 
  12   2.0000     -10.182224      -277.0724 
  13   2.0000     -10.181904      -277.0637 
  14   2.0000     -10.181420      -277.0505 
  15   2.0000     -10.179609      -277.0012 
  16   2.0000     -10.175218      -276.8817 
  17   2.0000     -10.174772      -276.8696 
  18   2.0000     -10.174184      -276.8536 
  19   2.0000     -10.172308      -276.8026 
  20   2.0000     -10.171042      -276.7681 
  21   2.0000     -10.170611      -276.7564 
  22   2.0000     -10.169751      -276.7330 
  23   2.0000     -10.169464      -276.7252 
  24   2.0000     -10.167972      -276.6846 
  25   2.0000     -10.166084      -276.6332 
  26   2.0000     -10.157880      -276.4100 
  27   2.0000      -1.237982       -33.6872 
  28   2.0000      -1.179785       -32.1036 
  29   2.0000      -1.075846       -29.2753 
  30   2.0000      -1.072127       -29.1741 
  31   2.0000      -1.057191       -28.7676 
  32   2.0000      -1.055898       -28.7325 
  33   2.0000      -0.870249       -23.6807 
  34   2.0000      -0.853090       -23.2138 
  35   2.0000      -0.810262       -22.0484 
  36   2.0000      -0.797326       -21.6963 
  37   2.0000      -0.789840       -21.4926 
  38   2.0000      -0.774023       -21.0622 
  39   2.0000      -0.756621       -20.5887 
  40   2.0000      -0.744187       -20.2504 
  41   2.0000      -0.721916       -19.6443 
  42   2.0000      -0.698166       -18.9981 
  43   2.0000      -0.685923       -18.6649 
  44   2.0000      -0.676132       -18.3985 
  45   2.0000      -0.639928       -17.4133 
  46   2.0000      -0.633635       -17.2421 
  47   2.0000      -0.614884       -16.7318 
  48   2.0000      -0.596368       -16.2280 
  49   2.0000      -0.589111       -16.0305 
  50   2.0000      -0.574220       -15.6253 
  51   2.0000      -0.566098       -15.4043 
  52   2.0000      -0.563868       -15.3436 
  53   2.0000      -0.552317       -15.0293 
  54   2.0000      -0.547492       -14.8980 
  55   2.0000      -0.536605       -14.6018 
  56   2.0000      -0.529305       -14.4031 
  57   2.0000      -0.499553       -13.5935 
  58   2.0000      -0.494719       -13.4620 
  59   2.0000      -0.492453       -13.4003 
  60   2.0000      -0.484390       -13.1809 
  61   2.0000      -0.480608       -13.0780 
  62   2.0000      -0.477314       -12.9884 
  63   2.0000      -0.468996       -12.7620 
  64   2.0000      -0.457372       -12.4457 
  65   2.0000      -0.443913       -12.0795 
  66   2.0000      -0.441538       -12.0149 
  67   2.0000      -0.437286       -11.8992 
  68   2.0000      -0.433276       -11.7900 
  69   2.0000      -0.430098       -11.7036 
  70   2.0000      -0.427698       -11.6382 
  71   2.0000      -0.418591       -11.3904 
  72   2.0000      -0.415317       -11.3014 
  73   2.0000      -0.414012       -11.2658 
  74   2.0000      -0.411308       -11.1923 
  75   2.0000      -0.404019       -10.9939 
  76   2.0000      -0.399629       -10.8745 
  77   2.0000      -0.393167       -10.6986 
  78   2.0000      -0.387447       -10.5430 
  79   2.0000      -0.371702       -10.1145 
  80   2.0000      -0.370271       -10.0756 
  81   2.0000      -0.364920        -9.9300 
  82   2.0000      -0.360890        -9.8203 
  83   2.0000      -0.356523        -9.7015 
  84   2.0000      -0.355040        -9.6611 
  85   2.0000      -0.349549        -9.5117 
  86   2.0000      -0.346608        -9.4317 
  87   2.0000      -0.337704        -9.1894 
  88   2.0000      -0.335434        -9.1276 
  89   2.0000      -0.334871        -9.1123 
  90   2.0000      -0.329456        -8.9650 
  91   2.0000      -0.322063        -8.7638 
  92   2.0000      -0.273783        -7.4500 
  93   2.0000      -0.265977        -7.2376 
  94   2.0000      -0.260573        -7.0905 
  95   2.0000      -0.255819        -6.9612 
  96   2.0000      -0.232196        -6.3184 
  97   2.0000      -0.215515        -5.8645 
  98   0.0000      -0.026274        -0.7149 
  99   0.0000      -0.022970        -0.6250 
 100   0.0000      -0.005346        -0.1455 
 101   0.0000       0.001952         0.0531 
 102   0.0000       0.002667         0.0726 
 103   0.0000       0.004953         0.1348 
 104   0.0000       0.022639         0.6160 
 105   0.0000       0.030804         0.8382 
 106   0.0000       0.047825         1.3014 
 107   0.0000       0.057060         1.5527 
 108   0.0000       0.062544         1.7019 
*Only the first 10 virtual orbitals were printed.

                    ********************************
                    * MULLIKEN POPULATION ANALYSIS *
                    ********************************

-----------------------
MULLIKEN ATOMIC CHARGES
-----------------------
   0 O :   -0.443686
   1 O :   -0.449139
   2 C :    0.101717
   3 C :    0.081067
   4 C :    0.054181
   5 C :   -0.277591
   6 C :    0.094759
   7 C :   -0.272680
   8 C :    0.231379
   9 C :   -0.202006
  10 C :    0.267897
  11 C :   -0.220277
  12 C :   -0.174091
  13 C :   -0.178121
  14 C :   -0.263892
  15 C :   -0.265062
  16 C :   -0.184438
  17 C :   -0.131683
  18 C :   -0.302617
  19 C :   -0.327554
  20 H :    0.142217
  21 H :    0.144477
  22 H :    0.136544
  23 H :    0.139053
  24 H :    0.133885
  25 H :    0.115851
  26 H :    0.124874
  27 H :    0.130375
  28 H :    0.134127
  29 H :    0.124702
  30 H :    0.136604
  31 H :    0.127482
  32 H :    0.339981
  33 H :    0.348285
  34 H :    0.146381
  35 H :    0.146980
  36 H :    0.136666
  37 H :    0.130998
  38 H :    0.143379
  39 H :    0.150595
  40 O :   -0.262528
  41 C :   -0.025942
  42 C :    0.249835
  43 C :    0.452164
  44 O :   -0.354793
  45 O :   -0.257378
  46 F :   -0.236579
  47 H :    0.163602
Sum of atomic charges:   -0.0000000

--------------------------------
MULLIKEN REDUCED ORBITAL CHARGES
--------------------------------
  0 O s       :     3.756990  s :     3.756990
      pz      :     1.520431  p :     4.655299
      px      :     1.377070
      py      :     1.757798
      dz2     :     0.009507  d :     0.029677
      dxz     :     0.003822
      dyz     :     0.006652
      dx2y2   :     0.007119
      dxy     :     0.002577
      f0      :     0.000201  f :     0.001720
      f+1     :     0.000343
      f-1     :     0.000295
      f+2     :     0.000211
      f-2     :     0.000209
      f+3     :     0.000368
      f-3     :     0.000094

  1 O s       :     3.774830  s :     3.774830
      pz      :     1.551348  p :     4.642914
      px      :     1.327535
      py      :     1.764030
      dz2     :     0.004909  d :     0.029744
      dxz     :     0.012411
      dyz     :     0.003842
      dx2y2   :     0.004169
      dxy     :     0.004413
      f0      :     0.000018  f :     0.001651
      f+1     :     0.000334
      f-1     :     0.000068
      f+2     :     0.000279
      f-2     :     0.000259
      f+3     :     0.000302
      f-3     :     0.000390

  2 C s       :     3.257128  s :     3.257128
      pz      :     0.872601  p :     2.523468
      px      :     0.751367
      py      :     0.899500
      dz2     :     0.022408  d :     0.108057
      dxz     :     0.025250
      dyz     :     0.016811
      dx2y2   :     0.021223
      dxy     :     0.022364
      f0      :     0.001436  f :     0.009630
      f+1     :     0.001362
      f-1     :     0.001282
      f+2     :     0.001690
      f-2     :     0.001459
      f+3     :     0.001172
      f-3     :     0.001230

  3 C s       :     3.252959  s :     3.252959
      pz      :     0.852658  p :     2.535074
      px      :     0.731850
      py      :     0.950567
      dz2     :     0.028501  d :     0.121124
      dxz     :     0.028560
      dyz     :     0.020287
      dx2y2   :     0.020866
      dxy     :     0.022910
      f0      :     0.001553  f :     0.009776
      f+1     :     0.002368
      f-1     :     0.000726
      f+2     :     0.001285
      f-2     :     0.001606
      f+3     :     0.001066
      f-3     :     0.001171

  4 C s       :     3.225908  s :     3.225908
      pz      :     0.824299  p :     2.590228
      px      :     0.828005
      py      :     0.937923
      dz2     :     0.032044  d :     0.120004
      dxz     :     0.026260
      dyz     :     0.019016
      dx2y2   :     0.018975
      dxy     :     0.023709
      f0      :     0.001547  f :     0.009680
      f+1     :     0.002240
      f-1     :     0.000788
      f+2     :     0.001512
      f-2     :     0.001325
      f+3     :     0.001272
      f-3     :     0.000997

  5 C s       :     3.282612  s :     3.282612
      pz      :     0.973620  p :     2.900658
      px      :     0.942704
      py      :     0.984334
      dz2     :     0.019427  d :     0.086741
      dxz     :     0.019277
      dyz     :     0.010012
      dx2y2   :     0.014613
      dxy     :     0.023411
      f0      :     0.000725  f :     0.007580
      f+1     :     0.001605
      f-1     :     0.000661
      f+2     :     0.001060
      f-2     :     0.001174
      f+3     :     0.001247
      f-3     :     0.001108

  6 C s       :     3.177134  s :     3.177134
      pz      :     0.867453  p :     2.592033
      px      :     0.833468
      py      :     0.891112
      dz2     :     0.027934  d :     0.126302
      dxz     :     0.029184
      dyz     :     0.017957
      dx2y2   :     0.028774
      dxy     :     0.022453
      f0      :     0.001139  f :     0.009772
      f+1     :     0.001706
      f-1     :     0.001402
      f+2     :     0.001657
      f-2     :     0.001341
      f+3     :     0.001327
      f-3     :     0.001199

  7 C s       :     3.285860  s :     3.285860
      pz      :     0.953992  p :     2.897739
      px      :     0.957001
      py      :     0.986746
      dz2     :     0.017782  d :     0.081562
      dxz     :     0.019369
      dyz     :     0.014821
      dx2y2   :     0.011336
      dxy     :     0.018255
      f0      :     0.001382  f :     0.007520
      f+1     :     0.001189
      f-1     :     0.000620
      f+2     :     0.001150
      f-2     :     0.001389
      f+3     :     0.001131
      f-3     :     0.000658

  8 C s       :     3.038279  s :     3.038279
      pz      :     0.768586  p :     2.546323
      px      :     0.917876
      py      :     0.859862
      dz2     :     0.040098  d :     0.168378
      dxz     :     0.033942
      dyz     :     0.030927
      dx2y2   :     0.035344
      dxy     :     0.028068
      f0      :     0.002742  f :     0.015641
      f+1     :     0.002420
      f-1     :     0.002549
      f+2     :     0.002691
      f-2     :     0.002074
      f+3     :     0.001585
      f-3     :     0.001581

  9 C s       :     3.282074  s :     3.282074
      pz      :     0.922621  p :     2.829267
      px      :     0.953902
      py      :     0.952744
      dz2     :     0.015815  d :     0.083327
      dxz     :     0.028460
      dyz     :     0.012026
      dx2y2   :     0.015483
      dxy     :     0.011542
      f0      :     0.001361  f :     0.007338
      f+1     :     0.001350
      f-1     :     0.000725
      f+2     :     0.001286
      f-2     :     0.000793
      f+3     :     0.001141
      f-3     :     0.000682

 10 C s       :     3.039716  s :     3.039716
      pz      :     0.878209  p :     2.509741
      px      :     0.724717
      py      :     0.906815
      dz2     :     0.033839  d :     0.167331
      dxz     :     0.046943
      dyz     :     0.024313
      dx2y2   :     0.025022
      dxy     :     0.037214
      f0      :     0.001981  f :     0.015315
      f+1     :     0.003561
      f-1     :     0.000879
      f+2     :     0.001911
      f-2     :     0.002670
      f+3     :     0.002281
      f-3     :     0.002031

 11 C s       :     3.270554  s :     3.270554
      pz      :     0.996127  p :     2.864586
      px      :     0.946147
      py      :     0.922312
      dz2     :     0.012174  d :     0.079680
      dxz     :     0.013892
      dyz     :     0.019084
      dx2y2   :     0.013516
      dxy     :     0.021014
      f0      :     0.000450  f :     0.005457
      f+1     :     0.000980
      f-1     :     0.000397
      f+2     :     0.000581
      f-2     :     0.001211
      f+3     :     0.000768
      f-3     :     0.001069

 12 C s       :     3.237581  s :     3.237581
      pz      :     0.867824  p :     2.849212
      px      :     0.968433
      py      :     1.012954
      dz2     :     0.030982  d :     0.081740
      dxz     :     0.014543
      dyz     :     0.014542
      dx2y2   :     0.014692
      dxy     :     0.006981
      f0      :     0.001035  f :     0.005559
      f+1     :     0.001272
      f-1     :     0.000879
      f+2     :     0.000854
      f-2     :     0.000699
      f+3     :     0.000076
      f-3     :     0.000744

 13 C s       :     3.235058  s :     3.235058
      pz      :     0.941503  p :     2.851232
      px      :     0.957661
      py      :     0.952068
      dz2     :     0.023913  d :     0.084449
      dxz     :     0.016243
      dyz     :     0.016561
      dx2y2   :     0.017084
      dxy     :     0.010647
      f0      :     0.001258  f :     0.007382
      f+1     :     0.000872
      f-1     :     0.001146
      f+2     :     0.001418
      f-2     :     0.001154
      f+3     :     0.000625
      f-3     :     0.000909

 14 C s       :     3.313929  s :     3.313929
      pz      :     0.960041  p :     2.867314
      px      :     0.907909
      py      :     0.999364
      dz2     :     0.013756  d :     0.075120
      dxz     :     0.018539
      dyz     :     0.009686
      dx2y2   :     0.012475
      dxy     :     0.020664
      f0      :     0.000646  f :     0.007529
      f+1     :     0.001545
      f-1     :     0.000712
      f+2     :     0.001060
      f-2     :     0.001203
      f+3     :     0.001278
      f-3     :     0.001086

 15 C s       :     3.309307  s :     3.309307
      pz      :     0.958152  p :     2.873945
      px      :     0.941129
      py      :     0.974664
      dz2     :     0.015516  d :     0.074275
      dxz     :     0.016197
      dyz     :     0.014072
      dx2y2   :     0.013973
      dxy     :     0.014517
      f0      :     0.001317  f :     0.007535
      f+1     :     0.001139
      f-1     :     0.000641
      f+2     :     0.001248
      f-2     :     0.001402
      f+3     :     0.001135
      f-3     :     0.000654

 16 C s       :     3.258856  s :     3.258856
      pz      :     0.990644  p :     2.836375
      px      :     0.945701
      py      :     0.900031
      dz2     :     0.004532  d :     0.082399
      dxz     :     0.019139
      dyz     :     0.012683
      dx2y2   :     0.014736
      dxy     :     0.031309
      f0      :     0.000902  f :     0.006808
      f+1     :     0.000548
      f-1     :     0.000440
      f+2     :     0.000996
      f-2     :     0.000875
      f+3     :     0.001330
      f-3     :     0.001717

 17 C s       :     3.230077  s :     3.230077
      pz      :     0.917505  p :     2.812680
      px      :     0.922188
      py      :     0.972987
      dz2     :     0.026755  d :     0.081901
      dxz     :     0.013994
      dyz     :     0.011414
      dx2y2   :     0.021296
      dxy     :     0.008443
      f0      :     0.001100  f :     0.007025
      f+1     :     0.001017
      f-1     :     0.001220
      f+2     :     0.001418
      f-2     :     0.000846
      f+3     :     0.000604
      f-3     :     0.000820

 18 C s       :     3.278578  s :     3.278578
      pz      :     1.001560  p :     2.973671
      px      :     0.918998
      py      :     1.053114
      dz2     :     0.003209  d :     0.045632
      dxz     :     0.012223
      dyz     :     0.002404
      dx2y2   :     0.006149
      dxy     :     0.021647
      f0      :     0.000833  f :     0.004735
      f+1     :     0.000406
      f-1     :     0.000239
      f+2     :     0.000626
      f-2     :     0.000653
      f+3     :     0.001083
      f-3     :     0.000895

 19 C s       :     3.284125  s :     3.284125
      pz      :     0.990528  p :     2.993864
      px      :     1.023233
      py      :     0.980103
      dz2     :     0.013377  d :     0.044711
      dxz     :     0.009242
      dyz     :     0.003795
      dx2y2   :     0.014118
      dxy     :     0.004180
      f0      :     0.000483  f :     0.004853
      f+1     :     0.000739
      f-1     :     0.000870
      f+2     :     0.001065
      f-2     :     0.000516
      f+3     :     0.000421
      f-3     :     0.000759

 20 H s       :     0.835385  s :     0.835385
      pz      :     0.012380  p :     0.022399
      px      :     0.003758
      py      :     0.006260

 21 H s       :     0.833111  s :     0.833111
      pz      :     0.006633  p :     0.022412
      px      :     0.006551
      py      :     0.009228

 22 H s       :     0.841208  s :     0.841208
      pz      :     0.007627  p :     0.022249
      px      :     0.010112
      py      :     0.004509

 23 H s       :     0.839322  s :     0.839322
      pz      :     0.005488  p :     0.021625
      px      :     0.008207
      py      :     0.007929

 24 H s       :     0.843840  s :     0.843840
      pz      :     0.011021  p :     0.022275
      px      :     0.004912
      py      :     0.006342

 25 H s       :     0.862509  s :     0.862509
      pz      :     0.004227  p :     0.021640
      px      :     0.004440
      py      :     0.012973

 26 H s       :     0.853161  s :     0.853161
      pz      :     0.004442  p :     0.021965
      px      :     0.012288
      py      :     0.005235

 27 H s       :     0.847416  s :     0.847416
      pz      :     0.004836  p :     0.022209
      px      :     0.012186
      py      :     0.005187

 28 H s       :     0.843461  s :     0.843461
      pz      :     0.012270  p :     0.022412
      px      :     0.003563
      py      :     0.006579

 29 H s       :     0.852957  s :     0.852957
      pz      :     0.006813  p :     0.022340
      px      :     0.006144
      py      :     0.009383

 30 H s       :     0.841181  s :     0.841181
      pz      :     0.006145  p :     0.022215
      px      :     0.007133
      py      :     0.008937

 31 H s       :     0.850625  s :     0.850625
      pz      :     0.004275  p :     0.021893
      px      :     0.004518
      py      :     0.013100

 32 H s       :     0.611093  s :     0.611093
      pz      :     0.011055  p :     0.048927
      px      :     0.024290
      py      :     0.013581

 33 H s       :     0.602713  s :     0.602713
      pz      :     0.018257  p :     0.049001
      px      :     0.015529
      py      :     0.015215

 34 H s       :     0.831370  s :     0.831370
      pz      :     0.005482  p :     0.022249
      px      :     0.005079
      py      :     0.011688

 35 H s       :     0.831368  s :     0.831368
      pz      :     0.005839  p :     0.021653
      px      :     0.007632
      py      :     0.008181

 36 H s       :     0.841251  s :     0.841251
      pz      :     0.010529  p :     0.022083
      px      :     0.007468
      py      :     0.004086

 37 H s       :     0.847139  s :     0.847139
      pz      :     0.004060  p :     0.021863
      px      :     0.004672
      py      :     0.013132

 38 H s       :     0.835692  s :     0.835692
      pz      :     0.005325  p :     0.020928
      px      :     0.008948
      py      :     0.006656

 39 H s       :     0.827864  s :     0.827864
      pz      :     0.004083  p :     0.021540
      px      :     0.002666
      py      :     0.014792

 40 O s       :     3.778882  s :     3.778882
      pz      :     1.407472  p :     4.440561
      px      :     1.454327
      py      :     1.578762
      dz2     :     0.011954  d :     0.040995
      dxz     :     0.007435
      dyz     :     0.007058
      dx2y2   :     0.008479
      dxy     :     0.006068
      f0      :     0.000360  f :     0.002091
      f+1     :     0.000262
      f-1     :     0.000451
      f+2     :     0.000267
      f-2     :     0.000264
      f+3     :     0.000239
      f-3     :     0.000247

 41 C s       :     3.226380  s :     3.226380
      pz      :     1.023966  p :     2.690375
      px      :     0.659142
      py      :     1.007267
      dz2     :     0.017324  d :     0.099257
      dxz     :     0.023584
      dyz     :     0.008309
      dx2y2   :     0.026547
      dxy     :     0.023492
      f0      :     0.001280  f :     0.009930
      f+1     :     0.001330
      f-1     :     0.001079
      f+2     :     0.001329
      f-2     :     0.001010
      f+3     :     0.001883
      f-3     :     0.002019

 42 C s       :     3.188077  s :     3.188077
      pz      :     0.786957  p :     2.343632
      px      :     0.826019
      py      :     0.730656
      dz2     :     0.041114  d :     0.197250
      dxz     :     0.036954
      dyz     :     0.035540
      dx2y2   :     0.037936
      dxy     :     0.045704
      f0      :     0.002083  f :     0.021207
      f+1     :     0.002625
      f-1     :     0.003013
      f+2     :     0.003618
      f-2     :     0.003830
      f+3     :     0.002546
      f-3     :     0.003491

 43 C s       :     2.997660  s :     2.997660
      pz      :     0.743662  p :     2.222936
      px      :     0.713494
      py      :     0.765780
      dz2     :     0.071705  d :     0.294603
      dxz     :     0.065084
      dyz     :     0.040701
      dx2y2   :     0.053226
      dxy     :     0.063886
      f0      :     0.004105  f :     0.032637
      f+1     :     0.008269
      f-1     :     0.002462
      f+2     :     0.004417
      f-2     :     0.004908
      f+3     :     0.004352
      f-3     :     0.004124

 44 O s       :     3.816779  s :     3.816779
      pz      :     1.589543  p :     4.508671
      px      :     1.428894
      py      :     1.490234
      dz2     :     0.004828  d :     0.027408
      dxz     :     0.006509
      dyz     :     0.003042
      dx2y2   :     0.005869
      dxy     :     0.007160
      f0      :     0.000134  f :     0.001935
      f+1     :     0.000479
      f-1     :     0.000082
      f+2     :     0.000314
      f-2     :     0.000315
      f+3     :     0.000359
      f-3     :     0.000253

 45 O s       :     3.779188  s :     3.779188
      pz      :     1.540082  p :     4.435847
      px      :     1.207457
      py      :     1.688308
      dz2     :     0.007826  d :     0.040235
      dxz     :     0.013920
      dyz     :     0.005753
      dx2y2   :     0.006453
      dxy     :     0.006283
      f0      :     0.000174  f :     0.002107
[...]
117:   1617.83   0.002436   12.31  0.000470  (-0.012610 -0.015112  0.009079)
118:   1645.93   0.001263    6.38  0.000239  (-0.013236 -0.007904 -0.001352)
119:   1650.36   0.003018   15.25  0.000571  ( 0.018467 -0.004993 -0.014310)
120:   1686.95   0.006147   31.07  0.001137  (-0.029055 -0.016376  0.004981)
121:   1695.56   0.006665   33.68  0.001227  (-0.014935 -0.015260 -0.027762)
122:   1862.37   0.225257  1138.35  0.037745  (-0.154881 -0.066797  0.096408)
123:   3013.10   0.009070   45.83  0.000939  ( 0.027647 -0.012022 -0.005517)
124:   3015.20   0.005330   26.94  0.000552  ( 0.013525 -0.018257  0.005948)
125:   3046.29   0.004593   23.21  0.000470  (-0.008753 -0.019839  0.000509)
126:   3054.86   0.002632   13.30  0.000269  (-0.007853 -0.001252  0.014340)
127:   3088.93   0.001802    9.11  0.000182  ( 0.008983  0.007436 -0.006786)
128:   3122.56   0.005967   30.15  0.000596  (-0.001603 -0.024351 -0.000871)
129:   3125.13   0.002833   14.32  0.000283  ( 0.015053 -0.005735 -0.004840)
130:   3129.81   0.001277    6.45  0.000127  (-0.002328  0.003883 -0.010337)
131:   3132.55   0.002059   10.41  0.000205  ( 0.002967 -0.010994 -0.008689)
132:   3142.20   0.001704    8.61  0.000169  ( 0.009522  0.008504  0.002510)
133:   3155.32   0.000271    1.37  0.000027  (-0.001211  0.004099  0.002923)
134:   3160.93   0.002681   13.55  0.000265  (-0.011293 -0.011707 -0.000269)
135:   3161.62   0.002433   12.29  0.000240  ( 0.011984 -0.002558 -0.009484)
136:   3166.33   0.002170   10.96  0.000214  (-0.000673 -0.004690  0.013834)
137:   3177.32   0.001572    7.94  0.000154  ( 0.012125  0.002520 -0.000995)
138:   3187.78   0.003271   16.53  0.000320  (-0.010672 -0.011956 -0.007959)
139:   3191.57   0.001950    9.85  0.000191  (-0.001953  0.004236 -0.012996)
140:   3208.51   0.004157   21.01  0.000404  (-0.007356  0.014196 -0.012193)
141:   3212.64   0.002675   13.52  0.000260  (-0.000196  0.014680  0.006653)
142:   3675.46   0.121055  611.76  0.010278  ( 0.085766  0.023417  0.048723)
143:   3676.78   0.118925  601.00  0.010094  ( 0.082208 -0.012405 -0.056405)

* The epsilon (eps) is given for a Dirac delta lineshape.
** The dipole moment derivative (T) already includes vibrational overlap.

The first frequency considered to be a vibration is 9
The total number of vibrations considered is 135


--------------------------
THERMOCHEMISTRY AT 298.15K
--------------------------

Temperature         ...   298.15 K
Pressure            ...     1.00 atm
Total Mass          ...   372.39 AMU
Quasi RRHO          ...     True
Cut-Off Frequency   ...     1.00 cm^-1

Throughout the following assumptions are being made:
  (1) The electronic state is orbitally nondegenerate
  (2) There are no thermally accessible electronically excited states
  (3) Hindered rotations indicated by low frequency modes are not
      treated as such but are treated as vibrations and this may
      cause some error
  (4) All equations used are the standard statistical mechanics
      equations for an ideal gas
  (5) All vibrations are strictly harmonic

freq.      15.42  E(vib)   ...       0.57 
freq.      20.78  E(vib)   ...       0.56 
freq.      38.46  E(vib)   ...       0.54 
freq.      44.39  E(vib)   ...       0.53 
freq.      49.53  E(vib)   ...       0.52 
freq.      54.54  E(vib)   ...       0.52 
freq.      57.15  E(vib)   ...       0.51 
freq.      70.27  E(vib)   ...       0.50 
freq.      84.48  E(vib)   ...       0.48 
freq.     106.59  E(vib)   ...       0.45 
freq.     112.80  E(vib)   ...       0.45 
freq.     120.82  E(vib)   ...       0.44 
freq.     143.41  E(vib)   ...       0.41 
freq.     185.66  E(vib)   ...       0.37 
freq.     190.51  E(vib)   ...       0.36 
freq.     195.49  E(vib)   ...       0.36 
freq.     217.74  E(vib)   ...       0.33 
freq.     266.03  E(vib)   ...       0.29 
freq.     289.41  E(vib)   ...       0.27 
freq.     316.93  E(vib)   ...       0.25 
freq.     330.01  E(vib)   ...       0.24 
freq.     361.84  E(vib)   ...       0.22 
freq.     377.39  E(vib)   ...       0.21 
freq.     385.21  E(vib)   ...       0.20 
freq.     392.85  E(vib)   ...       0.20 
freq.     396.28  E(vib)   ...       0.20 
freq.     408.14  E(vib)   ...       0.19 
freq.     444.21  E(vib)   ...       0.17 
freq.     458.13  E(vib)   ...       0.16 
freq.     474.97  E(vib)   ...       0.15 
freq.     477.19  E(vib)   ...       0.15 
freq.     496.39  E(vib)   ...       0.14 
freq.     499.99  E(vib)   ...       0.14 
freq.     508.91  E(vib)   ...       0.14 
freq.     546.62  E(vib)   ...       0.12 
freq.     565.20  E(vib)   ...       0.11 
freq.     600.71  E(vib)   ...       0.10 
freq.     615.23  E(vib)   ...       0.10 
freq.     626.25  E(vib)   ...       0.09 
freq.     657.68  E(vib)   ...       0.08 
freq.     688.36  E(vib)   ...       0.07 
freq.     721.65  E(vib)   ...       0.07 
freq.     736.50  E(vib)   ...       0.06 
freq.     759.10  E(vib)   ...       0.06 
freq.     762.72  E(vib)   ...       0.06 
freq.     767.19  E(vib)   ...       0.06 
freq.     791.18  E(vib)   ...       0.05 
freq.     803.99  E(vib)   ...       0.05 
freq.     822.86  E(vib)   ...       0.05 
freq.     844.56  E(vib)   ...       0.04 
freq.     849.62  E(vib)   ...       0.04 
freq.     866.40  E(vib)   ...       0.04 
freq.     867.23  E(vib)   ...       0.04 
freq.     904.81  E(vib)   ...       0.03 
freq.     905.90  E(vib)   ...       0.03 
freq.     915.84  E(vib)   ...       0.03 
freq.     924.98  E(vib)   ...       0.03 
freq.     928.51  E(vib)   ...       0.03 
freq.     939.15  E(vib)   ...       0.03 
freq.     942.86  E(vib)   ...       0.03 
freq.     949.92  E(vib)   ...       0.03 
freq.     962.71  E(vib)   ...       0.03 
freq.     964.35  E(vib)   ...       0.03 
freq.     967.75  E(vib)   ...       0.03 
freq.     970.41  E(vib)   ...       0.03 
freq.     998.03  E(vib)   ...       0.02 
freq.    1033.94  E(vib)   ...       0.02 
freq.    1040.29  E(vib)   ...       0.02 
freq.    1066.78  E(vib)   ...       0.02 
freq.    1070.45  E(vib)   ...       0.02 
freq.    1075.92  E(vib)   ...       0.02 
freq.    1112.63  E(vib)   ...       0.01 
freq.    1115.99  E(vib)   ...       0.01 
freq.    1117.02  E(vib)   ...       0.01 
freq.    1138.81  E(vib)   ...       0.01 
freq.    1140.29  E(vib)   ...       0.01 
freq.    1143.78  E(vib)   ...       0.01 
freq.    1170.98  E(vib)   ...       0.01 
freq.    1182.94  E(vib)   ...       0.01 
freq.    1193.86  E(vib)   ...       0.01 
freq.    1212.48  E(vib)   ...       0.01 
freq.    1233.26  E(vib)   ...       0.01 
freq.    1233.36  E(vib)   ...       0.01 
freq.    1243.52  E(vib)   ...       0.01 
freq.    1257.54  E(vib)   ...       0.01 
freq.    1271.88  E(vib)   ...       0.01 
freq.    1298.84  E(vib)   ...       0.01 
freq.    1308.10  E(vib)   ...       0.01 
freq.    1318.31  E(vib)   ...       0.01 
freq.    1321.09  E(vib)   ...       0.01 
freq.    1323.65  E(vib)   ...       0.01 
freq.    1330.74  E(vib)   ...       0.01 
freq.    1342.13  E(vib)   ...       0.01 
freq.    1348.01  E(vib)   ...       0.01 
freq.    1362.74  E(vib)   ...       0.01 
freq.    1369.95  E(vib)   ...       0.01 
freq.    1383.19  E(vib)   ...       0.00 
freq.    1413.17  E(vib)   ...       0.00 
freq.    1438.13  E(vib)   ...       0.00 
freq.    1446.29  E(vib)   ...       0.00 
freq.    1446.71  E(vib)   ...       0.00 
freq.    1455.76  E(vib)   ...       0.00 
freq.    1463.06  E(vib)   ...       0.00 
freq.    1468.27  E(vib)   ...       0.00 
freq.    1496.43  E(vib)   ...       0.00 
freq.    1519.03  E(vib)   ...       0.00 
freq.    1529.65  E(vib)   ...       0.00 
freq.    1612.56  E(vib)   ...       0.00 
freq.    1617.83  E(vib)   ...       0.00 
freq.    1645.93  E(vib)   ...       0.00 
freq.    1650.36  E(vib)   ...       0.00 
freq.    1686.95  E(vib)   ...       0.00 
freq.    1695.56  E(vib)   ...       0.00 
freq.    1862.37  E(vib)   ...       0.00 
freq.    3013.10  E(vib)   ...       0.00 
freq.    3015.20  E(vib)   ...       0.00 
freq.    3046.29  E(vib)   ...       0.00 
freq.    3054.86  E(vib)   ...       0.00 
freq.    3088.93  E(vib)   ...       0.00 
freq.    3122.56  E(vib)   ...       0.00 
freq.    3125.13  E(vib)   ...       0.00 
freq.    3129.81  E(vib)   ...       0.00 
freq.    3132.55  E(vib)   ...       0.00 
freq.    3142.20  E(vib)   ...       0.00 
freq.    3155.32  E(vib)   ...       0.00 
freq.    3160.93  E(vib)   ...       0.00 
freq.    3161.62  E(vib)   ...       0.00 
freq.    3166.33  E(vib)   ...       0.00 
freq.    3177.32  E(vib)   ...       0.00 
freq.    3187.78  E(vib)   ...       0.00 
freq.    3191.57  E(vib)   ...       0.00 
freq.    3208.51  E(vib)   ...       0.00 
freq.    3212.64  E(vib)   ...       0.00 
freq.    3675.46  E(vib)   ...       0.00 
freq.    3676.78  E(vib)   ...       0.00 

------------
INNER ENERGY
------------

The inner energy is: U= E(el) + E(ZPE) + E(vib) + E(rot) + E(trans)
    E(el)   - is the total energy from the electronic structure calculation
              = E(kin-el) + E(nuc-el) + E(el-el) + E(nuc-nuc)
    E(ZPE)  - the the zero temperature vibrational energy from the frequency calculation
    E(vib)  - the the finite temperature correction to E(ZPE) due to population
              of excited vibrational states
    E(rot)  - is the rotational thermal energy
    E(trans)- is the translational thermal energy

Summary of contributions to the inner energy U:
Electronic energy                ...  -1288.63061342 Eh
Zero point energy                ...      0.37775584 Eh     237.04 kcal/mol
Thermal vibrational correction   ...      0.02112396 Eh      13.26 kcal/mol
Thermal rotational correction    ...      0.00141627 Eh       0.89 kcal/mol
Thermal translational correction ...      0.00141627 Eh       0.89 kcal/mol
-----------------------------------------------------------------------
Total thermal energy                  -1288.22890107 Eh


Summary of corrections to the electronic energy:
(perhaps to be used in another calculation)
Total thermal correction                  0.02395651 Eh      15.03 kcal/mol
Non-thermal (ZPE) correction              0.37775584 Eh     237.04 kcal/mol
-----------------------------------------------------------------------
Total correction                          0.40171235 Eh     252.08 kcal/mol


--------
ENTHALPY
--------

The enthalpy is H = U + kB*T
                kB is Boltzmann's constant
Total thermal energy              ...  -1288.22890107 Eh 
Thermal Enthalpy correction       ...      0.00094421 Eh       0.59 kcal/mol
-----------------------------------------------------------------------
Total Enthalpy                    ...  -1288.22795687 Eh


Note: Only C1 symmetry has been detected, increase convergence thresholds 
      if your molecule has a higher symmetry. Symmetry factor of 1.0 is   
      used for the rotational entropy correction. 
 

Note: Rotational entropy computed according to Herzberg 
Infrared and Raman Spectra, Chapter V,1, Van Nostrand Reinhold, 1945 
Point Group:  C1, Symmetry Number:   1  
Rotational constants in cm-1:     0.009137     0.003585     0.002824 

Vibrational entropy computed according to the QRRHO of S. Grimme
Chem.Eur.J. 2012 18 9955 using a reference frequency of 100.0 cm-1


-------
ENTROPY
-------

The entropy contributions are T*S = T*(S(el)+S(vib)+S(rot)+S(trans))
     S(el)   - electronic entropy
     S(vib)  - vibrational entropy
     S(rot)  - rotational entropy
     S(trans)- translational entropy
The entropies will be listed as multiplied by the temperature to get
units of energy

Electronic entropy                ...      0.00000000 Eh      0.00 kcal/mol
Vibrational entropy               ...      0.03794962 Eh     23.81 kcal/mol
Rotational entropy                ...      0.01715679 Eh     10.77 kcal/mol
Translational entropy             ...      0.02073332 Eh     13.01 kcal/mol
-----------------------------------------------------------------------
Final entropy term                ...      0.07583974 Eh     47.59 kcal/mol

In case the symmetry of your molecule has not been determined correctly
or in case you have a reason to use a different symmetry number we print 
out the resulting rotational entropy values for sn=1,12:

 non-linear molecules -----------------------------------
|  sn= 1 | S(rot)=       0.01715679 Eh     10.77 kcal/mol|
|  sn= 2 | S(rot)=       0.01650234 Eh     10.36 kcal/mol|
|  sn= 3 | S(rot)=       0.01611950 Eh     10.12 kcal/mol|
|  sn= 4 | S(rot)=       0.01584788 Eh      9.94 kcal/mol|
|  sn= 5 | S(rot)=       0.01563719 Eh      9.81 kcal/mol|
|  sn= 6 | S(rot)=       0.01546505 Eh      9.70 kcal/mol|
|  sn= 7 | S(rot)=       0.01531950 Eh      9.61 kcal/mol|
|  sn= 8 | S(rot)=       0.01519342 Eh      9.53 kcal/mol|
|  sn= 9 | S(rot)=       0.01508222 Eh      9.46 kcal/mol|
|  sn=10 | S(rot)=       0.01498274 Eh      9.40 kcal/mol|
|  sn=11 | S(rot)=       0.01489275 Eh      9.35 kcal/mol|
|  sn=12 | S(rot)=       0.01481059 Eh      9.29 kcal/mol|
 linear molecules ---------------------------------------
|  Dinfh | S(rot)=       0.01086780 Eh      6.82 kcal/mol|
|  Cinfv | S(rot)=       0.01152225 Eh      7.23 kcal/mol|
 --------------------------------------------------------


-------------------
GIBBS FREE ENERGY
-------------------

The Gibbs free energy is G = H - T*S

Total enthalpy                    ...  -1288.22795687 Eh 
Total entropy correction          ...     -0.07583974 Eh    -47.59 kcal/mol
-----------------------------------------------------------------------
Final Gibbs free energy         ...  -1288.30379660 Eh

For completeness - the Gibbs free energy minus the electronic energy
G-E(el)                           ...      0.32681682 Eh    205.08 kcal/mol


Maximum memory used throughout the entire PROP-calculation: 701.5 MB
--------------------------------------------------------------------------
WARNING: There was an error initializing an OpenFabrics device.

  Local host:   ga00
  Local device: mlx5_0
--------------------------------------------------------------------------
[ga00:3467968] 24 more processes have sent help message help-mpi-btl-openib.txt / error in device init
[ga00:3467968] Set MCA parameter "orte_base_help_aggregate" to 0 to see all help / error messages

--------------------------------
SUGGESTED CITATIONS FOR THIS RUN
--------------------------------

Below you find a list of papers that are relevant to this ORCA run
We neither can nor want to force you to cite these papers, but we appreciate if you do
You receive ORCA, which is the product of decades of hard work by many enthusiastic individuals, for free
The only thing we kindly ask in return is that you cite our papers,
We deeply appreciate it, if you show your appreciation for ORCA by not just citing the generic ORCA reference.

Please note that relegating all ORCA citations to the supporting information does *not* help us.
SI sections are not indexed - citations you put there will not count into any citation statistics
But we need these citations in order to attract the funding resources that allow us to do what we are doing

Therefore, if you are a happy ORCA user, please consider citing a few of the papers listed below in the main body of your paper

In addition to the list printed below, the program has created the file honokiol2-opt_FEC.bibtex that contains the list in bibtex format
You can import this file easily into all common literature databanks and citation aid programs


List of essential papers. We consider these as the minimum necessary citations

  1. Neese,F.
     Software update: the ORCA program system, version 5.0
     WIRES Comput. Molec. Sci., 2022 12(1)e1606
     doi.org/10.1002/wcms.1606

List of papers to cite with high priority. The work reported in these papers was absolutely
necessary for this run to complete.
Our perspective: the developers of density functionals and basis sets usually get cited in chemistry papers
Good! But without the algorithms to do something with them, the functionals or basis sets would not do anything.
Hence, in our opinion, the algorithm design and method developments papers are equally worthy of getting cited

  1. Neese,F.
     An improvement of the resolution of the identity approximation for the formation of the Coulomb matrix
     J. Comp. Chem., 2003 24(14)1740-1747
     doi.org/10.1002/jcc.10318
  2. Neese,F.; Wennmohs,F.; Hansen,A.; Becker,U.
     Efficient, approximate and parallel Hartree-Fock and hybrid DFT calculations. A 'chain-of-spheres' algorithm for the Hartree-Fock exchange
     Chem. Phys., 2009 356(1-3)98-109
     doi.org/10.1016/j.chemphys.2008.10.036
  3. Bykov,D.; Petrenko,T.; Izsak,R.; Kossmann,S.; Becker,U.; Valeev,E.; Neese,F.
     Efficient implementation of the analytic second derivatives of Hartree-Fock and hybrid DFT energies: a detailed analysis of different approximations
     Molec. Phys., 2015 113 1961-1977
     doi.org/10.1080/00268976.2015.1025114
  4. Garcia-Rates,M.; Neese,F.
     Efficient implementation of the analytical second derivatives of hartree-fock and hybrid DFT energies within the framework of the conductor-like polarizable continuum model
     J. Comput. Chem., 2019 40 1816-1828
     doi.org/10.1002/jcc.25833
  5. Garcia-Rates,M.; Neese,F.
     Effect of the Solute Cavity on the Solvation Energy and its Derivatives within the Framework of the Gaussian Charge Scheme
     J. Comput. Chem., 2020 41 922-939
     doi.org/10.1002/jcc.26139
  6. Helmich-Paris,B.; de Souza,B.; Neese,F.; Izsák,R.
     An improved chain of spheres for exchange algorithm
     J. Chem. Phys., 2021 155 104109
     doi.org/doi: 10.1063/5.0058766.
  7. Neese,F.
     The SHARK Integral Generation and Digestion System
     J. Comp. Chem., 2022  1-16
     doi.org/10.1002/jcc.26942

List of suggested additional citations. These are papers that are important in the 'surrounding' of 
of this run, or papers that preceded the highly important papers. If you like your results we are grateful for a citation.

  1. Izsak,R.; Neese,F.
     An overlap fitted chain of spheres exchange method
     J. Chem. Phys., 2011 135 144105
     doi.org/10.1063/1.3646921
  2. Izsak,R.; Hansen,A.; Neese,F.
     The resolution of identity and chain of spheres approximations for the LPNO-CCSD singles Fock term
     Molec. Phys., 2012 110 2413-2417
     doi.org/10.1080/00268976.2012.687466
  3. Neese,F.
     The ORCA program system
     WIRES Comput. Molec. Sci., 2012 2(1)73-78
     doi.org/10.1002/wcms.81
  4. Izsak,R.; Neese,F.; Klopper,W.
     Robust fitting techniques in the chain of spheres approximation to the Fock exchange: The role of the complementary space
     J. Chem. Phys., 2013 139 
     doi.org/10.1063/1.4819264
  5. Neese,F.
     Software update: the ORCA program system, version 4.0
     WIRES Comput. Molec. Sci., 2018 8(1)1-6
     doi.org/10.1002/wcms.1327
  6. Neese,F.; Wennmohs,F.; Becker,U.; Riplinger,C.
     The ORCA quantum chemistry program package
     J. Chem. Phys., 2020 152 Art. No. L224108
     doi.org/10.1063/5.0004608

List of optional additional citations

  1. Neese,F.
     Approximate second-order SCF convergence for spin unrestricted wavefunctions
     Chem. Phys. Lett., 2000 325(1-3)93-98
     doi.org/10.1016/s0009-2614(00)00662-x

Timings for individual modules:

Sum of individual times          ...     1530.827 sec (=  25.514 min)
Startup calculation              ...        4.026 sec (=   0.067 min)   0.3 %
SCF iterations                   ...       58.685 sec (=   0.978 min)   3.8 %
Property integrals               ...      453.913 sec (=   7.565 min)  29.7 %
SCF Response                     ...      723.477 sec (=  12.058 min)  47.3 %
Property calculations            ...      290.725 sec (=   4.845 min)  19.0 %
                             ****ORCA TERMINATED NORMALLY****
TOTAL RUN TIME: 0 days 0 hours 25 minutes 31 seconds 777 msec
