
                                 *****************
                                 * O   R   C   A *
                                 *****************

                                            #,                                       
                                            ###                                      
                                            ####                                     
                                            #####                                    
                                            ######                                   
                                           ########,                                 
                                     ,,################,,,,,                         
                               ,,#################################,,                 
                          ,,##########################################,,             
                       ,#########################################, ''#####,          
                    ,#############################################,,   '####,        
                  ,##################################################,,,,####,       
                ,###########''''           ''''###############################       
              ,#####''   ,,,,##########,,,,          '''####'''          '####       
            ,##' ,,,,###########################,,,                        '##       
           ' ,,###''''                  '''############,,,                           
         ,,##''                                '''############,,,,        ,,,,,,###''
      ,#''                                            '''#######################'''  
     '                                                          ''''####''''         
             ,#######,   #######,   ,#######,      ##                                
            ,#'     '#,  ##    ##  ,#'     '#,    #''#        ,####,   ,####,        
            ##       ##  ##   ,#'  ##            #'  '#       #'       #'  '#        
            ##       ##  #######   ##           ,######,      #####,   #    #        
            '#,     ,#'  ##    ##  '#,     ,#' ,#      #,     #,   #   #,  ,#        
             '#######'   ##     ##  '#######'  #'      '#     '####' # '####'        



                #########################################################
                #                        -***-                          #
                #          Department of theory and spectroscopy        #
                #                                                       #
                #                      Frank Neese                      #
                #                                                       #
                #     Directorship, Architecture, Infrastructure        #
                #                    SHARK, DRIVERS                     #
                #        Core code/Algorithms in most modules           #
                #                                                       #
                #        Max Planck Institute fuer Kohlenforschung      #
                #                Kaiser Wilhelm Platz 1                 #
                #                 D-45470 Muelheim/Ruhr                 #
                #                      Germany                          #
                #                                                       #
                #                  All rights reserved                  #
                #                        -***-                          #
                #########################################################


                         Program Version 6.0.1  -  RELEASE   -


 With contributions from (in alphabetic order):
[Max-Planck-Institut fuer Kohlenforschung]                               
  Daniel Aravena         : Magnetic Suceptibility                        
  Michael Atanasov       : Ab Initio Ligand Field Theory (pilot matlab implementation)
  Alexander A. Auer      : GIAO ZORA, VPT2 properties, NMR spectrum      
  Ute Becker             : All parallelization in ORCA, NUMFREQ, NUMCALC 
  Giovanni Bistoni       : ED, misc. LED, open-shell LED, HFLD           
  Martin Brehm           : Molecular dynamics                            
  Dmytro Bykov           : pre 5.0 version of the SCF Hessian            
  Marcos Casanova-Páez   : Triplet and SCS-CIS(D). UHF-(DLPNO)-IP/EA/STEOM-CCSD. UHF-CVS-IP/STEOM-CCSD   
  Vijay G. Chilkuri      : MRCI spin determinant printing, contributions to CSF-ICE 
  Pauline Colinet        : FMM embedding                                 
  Dipayan Datta          : RHF DLPNO-CCSD density                        
  Achintya Kumar Dutta   : EOM-CC, STEOM-CC                              
  Nicolas Foglia         : Exact transition moments, OPA infrastructure, MCD improvements    
  Dmitry Ganyushin       : Spin-Orbit,Spin-Spin,Magnetic field MRCI      
  Miquel Garcia-Rates    : C-PCM and meta-GGA Hessian, CCSD/C-PCM, Gaussian charge scheme 
  Tiago L. C. Gouveia    : GS-ROHF, GS-ROCIS                             
  Yang Guo               : DLPNO-NEVPT2, F12-NEVPT2, CIM, IAO-localization        
  Andreas Hansen         : Spin unrestricted coupled pair/coupled cluster methods 
  Ingolf Harden          : AUTO-CI MPn and infrastructure                
  Benjamin Helmich-Paris : MC-RPA, TRAH-(SCF,CASSCF), AVAS, COSX integrals, SCF dyn. polar. 
  Lee Huntington         : MR-EOM, pCC                                   
  Robert Izsak           : Overlap fitted RIJCOSX, COSX-SCS-MP3, EOM     
  Riya Kayal             : Wick's Theorem for AUTO-CI, AUTO-CI UHF-CCSDT 
  Emily Kempfer          : AUTO-CI, RHF CISDT and CCSDT                  
  Christian Kollmar      : KDIIS, OOCD, Brueckner-CCSD(T), CCSD density, CASPT2, CASPT2-K, improved NEVPT2 
  Axel Koslowski         : Symmetry handling                             
  Simone Kossmann        : meta-GGA functionals, TD-DFT gradient, OOMP2, (MP2 Hessian; deprecated post 5.0) 
  Lucas Lang             : DCDCAS                                        
  Marvin Lechner         : AUTO-CI (C++ implementation), FIC-MRCC        
  Spencer Leger          : CASSCF response                               
  Dagmar Lenk            : GEPOL surface, SMD, ORCA-2-JSON               
  Dimitrios Liakos       : Extrapolation schemes; Compound Job, initial MDCI parallelization 
  Dimitrios Manganas     : Further ROCIS development; embedding schemes. LFT, Crystal Embedding 
  Dimitrios Pantazis     : SARC Basis sets                               
  Anastasios Papadopoulos: AUTO-CI, single reference methods and gradients 
  Taras Petrenko         : pre 6.0 DFT Hessian and TD-DFT gradient, (ASA, deprecated), ECA, 1-Electron XAS/XES, NRVS 
  Peter Pinski           : DLPNO-MP2, DLPNO-MP2 Gradient                 
  Christoph Reimann      : Effective Core Potentials                     
  Marius Retegan         : Local ZFS, SOC                                
  Christoph Riplinger    : Optimizer, TS searches, QM/MM, DLPNO-CCSD(T), (RO)-DLPNO pert. Triples 
  Michael Roemelt        : Original ROCIS implementation                 
  Masaaki Saitow         : Open-shell DLPNO-CCSD energy and density      
  Barbara Sandhoefer     : DKH picture change effects                    
  Kantharuban Sivalingam : CASSCF convergence/infrastructure, NEVPT2 and variants, FIC-MRCI 
  Bernardo de Souza      : ESD, SOC TD-DFT                               
  Georgi L. Stoychev     : AutoAux, RI-MP2 NMR, DLPNO-MP2 response, X2C  
  Van Anh Tran           : RI-MP2 g-tensors                              
  Willem Van den Heuvel  : Paramagnetic NMR                              
  Zikuan Wang            : NOTCH, Electric field optimization            
  Frank Wennmohs         : Technical directorship and infrastructure     
  Hang Xu                : AUTO-CI-Response properties                   
                                                                         
[FACCTs GmbH]                                                            
  Markus Bursch, Miquel Garcia-Rates, Christoph Riplinger, Bernardo de Souza, Georgi L. Stoychev 
                                                                 
  APM, Basis sets (HGBS, AHGBS, def-TZVP (Ac-Lr), def2-XVPD (La-Lu)), CI-OPT, improved COSX, DLPNO-Multilevel,           
  DOCKER, DRACO, updates on ESD, GOAT, IRC, LR-CPCM, MBIS, meta-GGA TD-DFT gradient, ML-optimized integration grids, 
  MM, NACMEs, nearIR, NEB, NEB-TS, NL-DFT gradient (VV10), 2- and 3-layer-ONIOM, interface openCOSMO-RS, QMMM,   
  Crystal-QMMM, SF, symmetry and pop. for TD-DFT, r2SCAN hybrids, SOLVATOR                                   
                                                                         
[Other institutions]                                                     
  V. Asgeirsson          : NEB                                           
  Christoph Bannwarth    : sTDA-DFT, sTD-DFT, PBEh-3c, B97-3c, D3        
  Sebastian Ehlert       : rSCAN, r2SCAN, r2SCAN-3c, D4, dhf basis sets  
  Marvin Friede          : D4 for Fr, Ra, Ac-Lr                          
  Lars Goerigk           : TD-DFT with DH, B97 family of functionals     
  Stefan Grimme          : VdW corrections, initial TS optimization, DFT functionals, gCP, sTDA/sTD-DF 
  Waldemar Hujo          : DFT-NL                                        
  H. Jonsson             : NEB                                           
  Holger Kruse           : gCP                                           
  Marcel Mueller         : wB97X-3c, vDZP basis set                      
  Hagen Neugebauer       : wr2SCAN                                       
  Tobias Risthaus        : range-separated hybrid DFT                    
  Lukas Wittmann         : regularized MP2, r2SCAN double-hybrids, wr2SCAN        
                                                                         
We gratefully acknowledge several colleagues who have allowed us to      
interface, adapt or use parts of their codes:                            
  Ed Valeev, F. Pavosevic, A. Kumar             : LibInt (2-el integral package), F12 methods 
  Garnet Chan, S. Sharma, J. Yang, R. Olivares  : DMRG                   
  Ulf Ekstrom                                   : XCFun DFT Library      
  Mihaly Kallay                                 : mrcc  (arbitrary order and MRCC methods)
  Frank Weinhold                                : gennbo (NPA and NBO analysis)           
  Simon Mueller                                 : openCOSMO-RS                            
  Christopher J. Cramer and Donald G. Truhlar   : smd solvation model                     
  S Lehtola, MJT Oliveira, MAL Marques          : LibXC Library                           
  Liviu Ungur et al                             : ANISO software                          


 Your calculation uses the libint2 library for the computation of 2-el integrals
 For citations please refer to: http://libint.valeyev.net

 Your ORCA version has been built with support for libXC version: 6.2.2
 For citations please refer to: https://libxc.gitlab.io

 This ORCA versions uses:
   CBLAS   interface :  Fast vector & matrix operations
   LAPACKE interface :  Fast linear algebra routines
   SCALAPACK package :  Parallel linear algebra routines
   Shared memory     :  Shared parallel matrices
   BLAS/LAPACK       :  OpenBLAS 0.3.27  USE64BITINT DYNAMIC_ARCH NO_AFFINITY SkylakeX SINGLE_THREADED
        Core in use  :  SkylakeX
   Copyright (c) 2011-2014, The OpenBLAS Project


NOTE: MaxCore=5000 MB was set to SCF,MP2,MDCI,CIPSI,MRCI and CIS
      => If you want to overwrite this, your respective input block should be placed after the MaxCore statement
Warning: RI is on but no J-basis has been assigned. Assigning Def2/J (nothing to worry about!)
================================================================================

----- Orbital basis set information -----
Your calculation utilizes the basis: def2-TZVP
   F. Weigend and R. Ahlrichs, Phys. Chem. Chem. Phys. 7, 3297 (2005).

----- AuxJ basis set information -----
Your calculation utilizes the auxiliary basis: def2/J
   F. Weigend, Phys. Chem. Chem. Phys. 8, 1057 (2006).

================================================================================
                                        WARNINGS
                       Please study these warnings very carefully!
================================================================================


================================================================================
                                       INPUT FILE
================================================================================
NAME = honokiol2-opt_FEC.inp
|  1> ! B3LYP def2-TZVP TightSCF CPCM(water) Freq
|  2> 
|  3> %maxcore 5000
|  4> 
|  5> %pal
|  6> nprocs 25
|  7> end
|  8> 
|  9> * xyz 0 1
| 10> O           1.56925132208646      1.73146329795256      2.26339267307623
| 11>   O          -3.67103881381609     -1.78396674684408      2.24919568240394
| 12>   C           1.32298214750540      0.15813177817813      0.41244170819831
| 13>   C           0.01026992218601     -0.35715263102463      0.88066709912023
| 14>   C          -2.36204708261546     -0.78977647212764      0.45531954565843
| 15>   C          -1.11479017457772     -0.31582183056675      0.05372457907485
| 16>   C           3.13777935572227      0.06760706975248     -1.22915047093636
| 17>   C           1.89178328608903     -0.34252416533483     -0.76145635854118
| 18>   C           2.03050731405997      1.14262913568656      1.12767866682581
| 19>   C          -0.13609279905636     -0.92391087479348      2.15003482413752
| 20>   C          -2.47206312298177     -1.34525329562248      1.73771784752254
| 21>   C          -3.56880435061691     -0.66444354841807     -0.45273250152919
| 22>   C           3.72300519123121     -0.51977587943278     -2.49994287598414
| 23>   C           3.82673380288089      1.02301911509640     -0.48352774522334
| 24>   C          -1.36042228456200     -1.42152720810639      2.56972774508222
| 25>   C           3.28103388153744      1.55711767282999      0.67401631009486
| 26>   C          -4.22421413155372     -1.98077492628773     -0.78130137904200
| 27>   C           2.91192762594487     -0.21446696844266     -3.72903572697175
| 28>   C          -5.50923916201718     -2.26582563542799     -0.58746124541235
| 29>   C           2.40237708369532     -1.12071109497327     -4.55506659877773
| 30>   H          -1.02266738422436      0.13076146343937     -0.92977814064230
| 31>   H           1.34379380613431     -1.09859688785206     -1.31304991894630
| 32>   H           0.71893096817106     -0.98759819233246      2.81102037673529
| 33>   H          -4.31096569981778      0.00634830650246     -0.00608647870050
| 34>   H          -3.24415115181367     -0.19087736645252     -1.38353423329186
| 35>   H           3.83031433194644     -1.60467295040337     -2.40185400108893
| 36>   H           4.73297255457291     -0.11739316574841     -2.63161022118056
| 37>   H           4.80270232246709      1.36111096795762     -0.81368149477096
| 38>   H          -1.46803873498969     -1.87987692977737      3.54473428014979
| 39>   H           3.80528949588293      2.31607526262915      1.24052339530852
| 40>   H          -3.57065985787195     -2.74012220185047     -1.20342210391636
| 41>   H           2.74099014027708      0.84093428089240     -3.92765056945250
| 42>   H           0.60856875158055      1.64263749729515      2.36699536143964
| 43>   H          -4.26227907495831     -2.04122828048572      1.52540067029337
| 44>   H          -5.92260738968931     -3.23108895139129     -0.85125228907245
| 45>   H          -6.19906749750153     -1.53394745339190     -0.17882590813283
| 46>   H           1.82870563313175     -0.83492271959328     -5.42810316091907
| 47>   H           2.54508357275352     -2.18357786196266     -4.39030258653011
| 48>   H          -5.18160095169991      0.83661286613300      3.39103768289815
| 49>   H          -3.56572127683955     -0.34800708850068      4.75883281321729
| 50>   O          -2.24043083840206      1.23182418602842      4.61761028598793
| 51>   C          -3.55422763514577      0.73179580239404      4.90443445580048
| 52>   C          -4.43171102580495      1.44986286625846      3.88505592719887
| 53>   C          -2.24369105284293      1.85875957579859      3.42854626620275
| 54>   O          -1.29016003444481      2.29030360260618      2.86627729730657
| 55>   O          -3.51945712775260      1.92885970602518      2.93553582011413
| 56>   F          -5.07959408208480      2.51980255730538      4.46300717290054
| 57>   H          -3.82160566877522      0.99266332518347      5.92574865541446
| 58> *
| 59> 
| 60>                          ****END OF INPUT****
================================================================================

                       ****************************
                       * Single Point Calculation *
                       ****************************

---------------------------------
CARTESIAN COORDINATES (ANGSTROEM)
---------------------------------
  O      1.569251    1.731463    2.263393
  O     -3.671039   -1.783967    2.249196
  C      1.322982    0.158132    0.412442
  C      0.010270   -0.357153    0.880667
  C     -2.362047   -0.789776    0.455320
  C     -1.114790   -0.315822    0.053725
  C      3.137779    0.067607   -1.229150
  C      1.891783   -0.342524   -0.761456
  C      2.030507    1.142629    1.127679
  C     -0.136093   -0.923911    2.150035
  C     -2.472063   -1.345253    1.737718
  C     -3.568804   -0.664444   -0.452733
  C      3.723005   -0.519776   -2.499943
  C      3.826734    1.023019   -0.483528
  C     -1.360422   -1.421527    2.569728
  C      3.281034    1.557118    0.674016
  C     -4.224214   -1.980775   -0.781301
  C      2.911928   -0.214467   -3.729036
  C     -5.509239   -2.265826   -0.587461
  C      2.402377   -1.120711   -4.555067
  H     -1.022667    0.130761   -0.929778
  H      1.343794   -1.098597   -1.313050
  H      0.718931   -0.987598    2.811020
  H     -4.310966    0.006348   -0.006086
  H     -3.244151   -0.190877   -1.383534
  H      3.830314   -1.604673   -2.401854
  H      4.732973   -0.117393   -2.631610
  H      4.802702    1.361111   -0.813681
  H     -1.468039   -1.879877    3.544734
  H      3.805289    2.316075    1.240523
  H     -3.570660   -2.740122   -1.203422
  H      2.740990    0.840934   -3.927651
  H      0.608569    1.642637    2.366995
  H     -4.262279   -2.041228    1.525401
  H     -5.922607   -3.231089   -0.851252
  H     -6.199067   -1.533947   -0.178826
  H      1.828706   -0.834923   -5.428103
  H      2.545084   -2.183578   -4.390303
  H     -5.181601    0.836613    3.391038
  H     -3.565721   -0.348007    4.758833
  O     -2.240431    1.231824    4.617610
  C     -3.554228    0.731796    4.904434
  C     -4.431711    1.449863    3.885056
  C     -2.243691    1.858760    3.428546
  O     -1.290160    2.290304    2.866277
  O     -3.519457    1.928860    2.935536
  F     -5.079594    2.519803    4.463007
  H     -3.821606    0.992663    5.925749

----------------------------
CARTESIAN COORDINATES (A.U.)
----------------------------
  NO LB      ZA    FRAG     MASS         X           Y           Z
   0 O     8.0000    0    15.999    2.965455    3.271991    4.277192
   1 O     8.0000    0    15.999   -6.937258   -3.371209    4.250364
   2 C     6.0000    0    12.011    2.500074    0.298826    0.779402
   3 C     6.0000    0    12.011    0.019407   -0.674921    1.664220
   4 C     6.0000    0    12.011   -4.463622   -1.492461    0.860429
   5 C     6.0000    0    12.011   -2.106648   -0.596817    0.101525
   6 C     6.0000    0    12.011    5.929544    0.127759   -2.322758
   7 C     6.0000    0    12.011    3.574952   -0.647277   -1.438944
   8 C     6.0000    0    12.011    3.837103    2.159256    2.131004
   9 C     6.0000    0    12.011   -0.257178   -1.745939    4.062977
  10 C     6.0000    0    12.011   -4.671522   -2.542160    3.283811
  11 C     6.0000    0    12.011   -6.744063   -1.255616   -0.855540
  12 C     6.0000    0    12.011    7.035460   -0.982234   -4.724207
  13 C     6.0000    0    12.011    7.231479    1.933226   -0.913735
  14 C     6.0000    0    12.011   -2.570826   -2.686297    4.856082
  15 C     6.0000    0    12.011    6.200255    2.942526    1.273706
  16 C     6.0000    0    12.011   -7.982608   -3.743122   -1.476446
  17 C     6.0000    0    12.011    5.502746   -0.405284   -7.046856
  18 C     6.0000    0    12.011  -10.410953   -4.281790   -1.110141
  19 C     6.0000    0    12.011    4.539835   -2.117837   -8.607828
  20 H     1.0000    0     1.008   -1.932561    0.247103   -1.757026
  21 H     1.0000    0     1.008    2.539402   -2.076047   -2.481305
  22 H     1.0000    0     1.008    1.358583   -1.866290    5.312059
  23 H     1.0000    0     1.008   -8.146545    0.011997   -0.011502
  24 H     1.0000    0     1.008   -6.130557   -0.360706   -2.614501
  25 H     1.0000    0     1.008    7.238245   -3.032392   -4.538846
  26 H     1.0000    0     1.008    8.944022   -0.221841   -4.973023
  27 H     1.0000    0     1.008    9.075792    2.572127   -1.537635
  28 H     1.0000    0     1.008   -2.774191   -3.552453    6.698577
  29 H     1.0000    0     1.008    7.190955    4.376748    2.344249
  30 H     1.0000    0     1.008   -6.747569   -5.178081   -2.274138
  31 H     1.0000    0     1.008    5.179721    1.589135   -7.422184
  32 H     1.0000    0     1.008    1.150028    3.104135    4.472973
  33 H     1.0000    0     1.008   -8.054540   -3.857362    2.882590
  34 H     1.0000    0     1.008  -11.192106   -6.105873   -1.608634
  35 H     1.0000    0     1.008  -11.714540   -2.898741   -0.337932
  36 H     1.0000    0     1.008    3.455753   -1.577775  -10.257628
  37 H     1.0000    0     1.008    4.809511   -4.126364   -8.296470
  38 H     1.0000    0     1.008   -9.791807    1.580969    6.408133
  39 H     1.0000    0     1.008   -6.738237   -0.657638    8.992891
  40 O     8.0000    0    15.999   -4.233801    2.327810    8.726019
  41 C     6.0000    0    12.011   -6.716517    1.382894    9.268038
  42 C     6.0000    0    12.011   -8.374720    2.739844    7.341692
  43 C     6.0000    0    12.011   -4.239962    3.512547    6.479013
  44 O     8.0000    0    15.999   -2.438049    4.328047    5.416479
  45 O     8.0000    0    15.999   -6.650810    3.645017    5.547359
  46 F     9.0000    0    18.998   -9.599042    4.761737    8.433861
  47 H     1.0000    0     1.008   -7.221788    1.875862   11.198042

--------------------------------
INTERNAL COORDINATES (ANGSTROEM)
--------------------------------
 O      0   0   0     0.000000000000     0.00000000     0.00000000
 O      1   0   0     6.310236973588     0.00000000     0.00000000
 C      1   2   0     2.441728906297    63.61308621     0.00000000
 C      3   1   2     1.485922752223    94.22544901     0.17120831
 C      2   1   3     2.433077320735    47.71979614   324.61351859
 C      5   2   1     1.393399194090   146.41381083    24.73127240
 C      3   1   2     2.448776942145   117.20970624   181.01526947
 C      7   3   1     1.392641956249    28.68035440   181.93562695
 C      1   2   3     1.359900387814    92.21048459   359.02246609
 C      4   3   1     1.397830953429   121.28215125   302.25218972
 C      2   1   3     1.375362415900    25.73557429   358.24021708
 C      5   2   1     1.515430620663    92.70331933   208.69197553
 C      7   3   1     1.517373172383   149.49389428   180.45895457
 C      7   3   1     1.394067306749    88.98982915     1.65434728
 C     10   4   3     1.386631476691   120.85123541   181.04594257
 C     14   7   3     1.386707580397   121.06087685   359.05909172
 C     12   5   2     1.506734145290   113.87853953   299.46694778
 C     13   7   3     1.503904779030   113.44486449    64.28003970
 C     17  12   5     1.330457527734   125.13730007   125.20748093
 C     18  13   7     1.327873176608   125.22587754   237.04513823
 H      6   5   2     1.084066809140   118.53299755   183.64339226
 H      8   7   3     1.084524728974   119.11588345   181.47209549
 H     10   4   3     1.082600396121   119.70922465     0.26766525
 H     12   5   2     1.095562800840   110.23022732    62.61184981
 H     12   5   2     1.093643676911   108.02347183   178.52597741
 H     13   7   3     1.094595054648   110.26950849   301.56343076
 H     13   7   3     1.095117442596   108.30967048   185.35077197
 H     14   7   3     1.084353332883   119.71217191   179.43092497
 H     15  10   4     1.082729657478   120.81286804   178.65743214
 H     16  14   7     1.082492886759   121.08484847   181.46484770
 H     17  12   5     1.087164835672   115.68211734   305.56028999
 H     18  13   7     1.087446217869   115.53565744    56.66887433
 H      1   2   3     0.970327027951    29.19713725   135.19694062
 H      2   1   3     0.969343985716   130.99944976   318.57991280
 H     19  17  12     1.082678288093   121.61984069   179.58564554
 H     19  17  12     1.085583550286   121.61068584     1.04900003
 H     20  18  13     1.083035903158   121.64274422   180.24192928
 H     20  18  13     1.084987597220   121.57573999   359.93281535
 H      2   1   3     3.233115932727    86.31035474   216.96512251
 H     39   2   1     2.425954467641    59.47753661   291.49957022
 O     40  39   2     2.066931398085    90.87812512   110.63956923
 C     40  39   2     1.089635822331    66.32558696   144.40970878
 C     39   2   1     1.087411830593   107.17913133   335.69092463
 C     41  40  39     1.344221654004   114.54226183   323.85281293
 O     44  41  40     1.188106915856   125.87928929   217.96091820
 O     44  41  40     1.369508089096   110.15561102    37.58604036
 F     43  39   2     1.377879181750   107.71118086   184.44455201
 H     42  40  39     1.087485894919   111.13806022   117.42234500

---------------------------
INTERNAL COORDINATES (A.U.)
---------------------------
 O      0   0   0     0.000000000000     0.00000000     0.00000000
 O      1   0   0    11.924619720226     0.00000000     0.00000000
 C      1   2   0     4.614198926181    63.61308621     0.00000000
 C      3   1   2     2.807987057864    94.22544901     0.17120831
 C      2   1   3     4.597849798845    47.71979614   324.61351859
 C      5   2   1     2.633142872056   146.41381083    24.73127240
 C      3   1   2     4.627517783716   117.20970624   181.01526947
 C      7   3   1     2.631711899919    28.68035440   181.93562695
 C      1   2   3     2.569839302382    92.21048459   359.02246609
 C      4   3   1     2.641517683499   121.28215125   302.25218972
 C      2   1   3     2.599058300939    25.73557429   358.24021708
 C      5   2   1     2.863748848010    92.70331933   208.69197553
 C      7   3   1     2.867419738763   149.49389428   180.45895457
 C      7   3   1     2.634405422010    88.98982915     1.65434728
 C     10   4   3     2.620353739620   120.85123541   181.04594257
 C     14   7   3     2.620497554782   121.06087685   359.05909172
 C     12   5   2     2.847314891225   113.87853953   299.46694778
 C     13   7   3     2.841968163862   113.44486449    64.28003970
 C     17  12   5     2.514200360232   125.13730007   125.20748093
 C     18  13   7     2.509316644369   125.22587754   237.04513823
 H      6   5   2     2.048589380148   118.53299755   183.64339226
 H      8   7   3     2.049454723226   119.11588345   181.47209549
 H     10   4   3     2.045818261144   119.70922465     0.26766525
 H     12   5   2     2.070313656099   110.23022732    62.61184981
 H     12   5   2     2.066687037456   108.02347183   178.52597741
 H     13   7   3     2.068484880829   110.26950849   301.56343076
 H     13   7   3     2.069472050987   108.30967048   185.35077197
 H     14   7   3     2.049130831554   119.71217191   179.43092497
 H     15  10   4     2.046062529708   120.81286804   178.65743214
 H     16  14   7     2.045615097892   121.08484847   181.46484770
 H     17  12   5     2.054443801849   115.68211734   305.56028999
 H     18  13   7     2.054975537141   115.53565744    56.66887433
 H      1   2   3     1.833652343169    29.19713725   135.19694062
 H      2   1   3     1.831794662566   130.99944976   318.57991280
 H     19  17  12     2.045965455639   121.61984069   179.58564554
 H     19  17  12     2.051455605530   121.61068584     1.04900003
 H     20  18  13     2.046641250173   121.64274422   180.24192928
 H     20  18  13     2.050329417447   121.57573999   359.93281535
 H      2   1   3     6.109703672071    86.31035474   216.96512251
 H     39   2   1     4.584389557204    59.47753661   291.49957022
 O     40  39   2     3.905934279984    90.87812512   110.63956923
 C     40  39   2     2.059113289916    66.32558696   144.40970878
 C     39   2   1     2.054910554608   107.17913133   335.69092463
 C     41  40  39     2.540210789353   114.54226183   323.85281293
 O     44  41  40     2.245196688785   125.87928929   217.96091820
 O     44  41  40     2.587995226582   110.15561102    37.58604036
 F     43  39   2     2.603814299139   107.71118086   184.44455201
 H     42  40  39     2.055050515898   111.13806022   117.42234500

---------------------
BASIS SET INFORMATION
---------------------
There are 4 groups of distinct atoms

 Group   1 Type O   : 11s6p2d1f contracted to 5s3p2d1f pattern {62111/411/11/1}
 Group   2 Type C   : 11s6p2d1f contracted to 5s3p2d1f pattern {62111/411/11/1}
 Group   3 Type H   : 5s1p contracted to 3s1p pattern {311/1}
 Group   4 Type F   : 11s6p2d1f contracted to 5s3p2d1f pattern {62111/411/11/1}

Atom   0O    basis set group =>   1
Atom   1O    basis set group =>   1
Atom   2C    basis set group =>   2
Atom   3C    basis set group =>   2
Atom   4C    basis set group =>   2
Atom   5C    basis set group =>   2
Atom   6C    basis set group =>   2
Atom   7C    basis set group =>   2
Atom   8C    basis set group =>   2
Atom   9C    basis set group =>   2
Atom  10C    basis set group =>   2
Atom  11C    basis set group =>   2
Atom  12C    basis set group =>   2
Atom  13C    basis set group =>   2
Atom  14C    basis set group =>   2
Atom  15C    basis set group =>   2
Atom  16C    basis set group =>   2
Atom  17C    basis set group =>   2
Atom  18C    basis set group =>   2
Atom  19C    basis set group =>   2
Atom  20H    basis set group =>   3
Atom  21H    basis set group =>   3
Atom  22H    basis set group =>   3
Atom  23H    basis set group =>   3
Atom  24H    basis set group =>   3
Atom  25H    basis set group =>   3
Atom  26H    basis set group =>   3
Atom  27H    basis set group =>   3
Atom  28H    basis set group =>   3
Atom  29H    basis set group =>   3
Atom  30H    basis set group =>   3
Atom  31H    basis set group =>   3
Atom  32H    basis set group =>   3
Atom  33H    basis set group =>   3
Atom  34H    basis set group =>   3
Atom  35H    basis set group =>   3
Atom  36H    basis set group =>   3
Atom  37H    basis set group =>   3
Atom  38H    basis set group =>   3
Atom  39H    basis set group =>   3
Atom  40O    basis set group =>   1
Atom  41C    basis set group =>   2
Atom  42C    basis set group =>   2
Atom  43C    basis set group =>   2
Atom  44O    basis set group =>   1
Atom  45O    basis set group =>   1
Atom  46F    basis set group =>   4
Atom  47H    basis set group =>   3
---------------------------------
AUXILIARY/J BASIS SET INFORMATION
---------------------------------
There are 4 groups of distinct atoms

 Group   1 Type O   : 12s5p4d2f1g contracted to 6s4p3d1f1g pattern {711111/2111/211/2/1}
 Group   2 Type C   : 12s5p4d2f1g contracted to 6s4p3d1f1g pattern {711111/2111/211/2/1}
 Group   3 Type H   : 5s2p1d contracted to 3s1p1d pattern {311/2/1}
 Group   4 Type F   : 12s5p4d2f1g contracted to 6s4p3d1f1g pattern {711111/2111/211/2/1}

Atom   0O    basis set group =>   1
Atom   1O    basis set group =>   1
Atom   2C    basis set group =>   2
Atom   3C    basis set group =>   2
Atom   4C    basis set group =>   2
Atom   5C    basis set group =>   2
Atom   6C    basis set group =>   2
Atom   7C    basis set group =>   2
Atom   8C    basis set group =>   2
Atom   9C    basis set group =>   2
Atom  10C    basis set group =>   2
Atom  11C    basis set group =>   2
Atom  12C    basis set group =>   2
Atom  13C    basis set group =>   2
Atom  14C    basis set group =>   2
Atom  15C    basis set group =>   2
Atom  16C    basis set group =>   2
Atom  17C    basis set group =>   2
Atom  18C    basis set group =>   2
Atom  19C    basis set group =>   2
Atom  20H    basis set group =>   3
Atom  21H    basis set group =>   3
Atom  22H    basis set group =>   3
Atom  23H    basis set group =>   3
Atom  24H    basis set group =>   3
Atom  25H    basis set group =>   3
Atom  26H    basis set group =>   3
Atom  27H    basis set group =>   3
Atom  28H    basis set group =>   3
Atom  29H    basis set group =>   3
Atom  30H    basis set group =>   3
Atom  31H    basis set group =>   3
Atom  32H    basis set group =>   3
Atom  33H    basis set group =>   3
Atom  34H    basis set group =>   3
Atom  35H    basis set group =>   3
Atom  36H    basis set group =>   3
Atom  37H    basis set group =>   3
Atom  38H    basis set group =>   3
Atom  39H    basis set group =>   3
Atom  40O    basis set group =>   1
Atom  41C    basis set group =>   2
Atom  42C    basis set group =>   2
Atom  43C    basis set group =>   2
Atom  44O    basis set group =>   1
Atom  45O    basis set group =>   1
Atom  46F    basis set group =>   4
Atom  47H    basis set group =>   3
--------------------------------------------------------------------------
WARNING: There was an error initializing an OpenFabrics device.

  Local host:   ga00
  Local device: mlx5_0
--------------------------------------------------------------------------


           ************************************************************
           *        Program running with 25 parallel MPI-processes    *
           *              working on a common directory               *
           ************************************************************
------------------------------------------------------------------------------
                             ORCA STARTUP CALCULATIONS
                           -- RI-GTO INTEGRALS CHOSEN --
------------------------------------------------------------------------------
------------------------------------------------------------------------------
                   ___                                                        
                  /   \      - P O W E R E D   B Y -                         
                 /     \                                                     
                 |  |  |   _    _      __       _____    __    __             
                 |  |  |  | |  | |    /  \     |  _  \  |  |  /  |          
                  \  \/   | |  | |   /    \    | | | |  |  | /  /          
                 / \  \   | |__| |  /  /\  \   | |_| |  |  |/  /          
                |  |  |   |  __  | /  /__\  \  |    /   |      \           
                |  |  |   | |  | | |   __   |  |    \   |  |\   \          
                \     /   | |  | | |  |  |  |  | |\  \  |  | \   \       
                 \___/    |_|  |_| |__|  |__|  |_| \__\ |__|  \__/        
                                                                              
                      - O R C A' S   B I G   F R I E N D -                    
                                      &                                       
                       - I N T E G R A L  F E E D E R -                       
                                                                              
 v1 FN, 2020, v2 2021, v3 2022-2024                                           
------------------------------------------------------------------------------


----------------------
SHARK INTEGRAL PACKAGE
----------------------

Number of atoms                             ...     48
Number of basis functions                   ...    963
Number of shells                            ...    381
Maximum angular momentum                    ...      3
Integral batch strategy                     ... SHARK/LIBINT Hybrid
RI-J (if used) integral strategy            ... SPLIT-RIJ (Revised 2003 algorithm where possible)
Printlevel                                  ...      1
Contraction scheme used                     ... SEGMENTED contraction
Prescreening option                         ... SCHWARTZ
   Thresh                                   ... 2.500e-11
   Tcut                                     ... 2.500e-12
   Tpresel                                  ... 2.500e-12 
Coulomb Range Separation                    ... NOT USED
Exchange Range Separation                   ... NOT USED
Multipole approximations                    ... NOT USED
Finite Nucleus Model                        ... NOT USED
CABS basis                                  ... NOT available
Auxiliary Coulomb fitting basis             ... AVAILABLE
   # of basis functions in Aux-J            ...   1554
   # of shells in Aux-J                     ...    510
   Maximum angular momentum in Aux-J        ...      4
Auxiliary J/K fitting basis                 ... NOT available
Auxiliary Correlation fitting basis         ... NOT available
Auxiliary 'external' fitting basis          ... NOT available

Checking pre-screening integrals            ... done (  0.0 sec) Dimension = 381
Check shell pair data                       ... done (  0.0 sec)
Shell pair information
Shell pair cut-off parameter TPreSel        ...   2.5e-12
Total number of shell pairs                 ...     72771
Shell pairs after pre-screening             ...     45085
Total number of primitive shell pairs       ...    222768
Primitive shell pairs kept                  ...     89405
          la=0 lb=0:  11811 shell pairs
          la=1 lb=0:  13211 shell pairs
          la=1 lb=1:   3718 shell pairs
          la=2 lb=0:   6285 shell pairs
          la=2 lb=1:   3591 shell pairs
          la=2 lb=2:    874 shell pairs
          la=3 lb=0:   2904 shell pairs
          la=3 lb=1:   1714 shell pairs
          la=3 lb=2:    782 shell pairs
          la=3 lb=3:    195 shell pairs

Calculating one electron integrals          ... done (  0.1 sec)
Calculating RI/J V-Matrix + Cholesky decomp.... done (  0.1 sec)
Calculating Nuclear repulsion               ... done (  0.0 sec) ENN=   2438.325629453176 Eh

Diagonalization of the overlap matrix:
Smallest eigenvalue                        ... 5.661e-06
Time for diagonalization                   ...    0.141 sec
Threshold for overlap eigenvalues          ... 1.000e-07
Number of eigenvalues below threshold      ... 0
Time for construction of square roots      ...    0.067 sec
Total time needed                          ...    0.216 sec

-------------------
DFT GRID GENERATION
-------------------

General Integration Accuracy     IntAcc      ... 4.388
Radial Grid Type                 RadialGrid  ... OptM3 with GC (2021)
Angular Grid (max. ang.)         AngularGrid ... 4 (Lebedev-302)
Angular grid pruning method      GridPruning ... 4 (adaptive)
Weight generation scheme         WeightScheme... mBecke (2022)
Basis function cutoff            BFCut       ... 1.0000e-11
Integration weight cutoff        WCut        ... 1.0000e-14
Partially contracted basis set               ... off
Rotationally invariant grid construction     ... off
Angular grids for H and He will be reduced by one unit

Total number of grid points                  ...   228387
Total number of batches                      ...     3593
Average number of points per batch           ...       63
Average number of grid points per atom       ...     4758

--------------------
COSX GRID GENERATION
--------------------

GRIDX 1
-------
General Integration Accuracy     IntAcc      ... 3.816
Radial Grid Type                 RadialGrid  ... OptM3 with GC (2021)
Angular Grid (max. ang.)         AngularGrid ... 1 (Lebedev-50)
Angular grid pruning method      GridPruning ... 4 (adaptive)
Weight generation scheme         WeightScheme... mBecke (2022)
Basis function cutoff            BFCut       ... 1.0000e-11
Integration weight cutoff        WCut        ... 1.0000e-14
Partially contracted basis set               ... on
Rotationally invariant grid construction     ... off
Angular grids for H and He will be reduced by one unit

Total number of grid points                  ...    28925
Total number of batches                      ...      256
Average number of points per batch           ...      112
Average number of grid points per atom       ...      603
UseSFitting                                  ... on

GRIDX 2
-------
General Integration Accuracy     IntAcc      ... 4.020
Radial Grid Type                 RadialGrid  ... OptM3 with GC (2021)
Angular Grid (max. ang.)         AngularGrid ... 2 (Lebedev-110)
Angular grid pruning method      GridPruning ... 4 (adaptive)
Weight generation scheme         WeightScheme... mBecke (2022)
Basis function cutoff            BFCut       ... 1.0000e-11
Integration weight cutoff        WCut        ... 1.0000e-14
Partially contracted basis set               ... on
Rotationally invariant grid construction     ... off
Angular grids for H and He will be reduced by one unit

Total number of grid points                  ...    62798
Total number of batches                      ...      516
Average number of points per batch           ...      121
Average number of grid points per atom       ...     1308
UseSFitting                                  ... on

GRIDX 3
-------
General Integration Accuracy     IntAcc      ... 4.338
Radial Grid Type                 RadialGrid  ... OptM3 with GC (2021)
Angular Grid (max. ang.)         AngularGrid ... 3 (Lebedev-194)
Angular grid pruning method      GridPruning ... 4 (adaptive)
Weight generation scheme         WeightScheme... mBecke (2022)
Basis function cutoff            BFCut       ... 1.0000e-11
Integration weight cutoff        WCut        ... 1.0000e-14
Partially contracted basis set               ... on
Rotationally invariant grid construction     ... off
Angular grids for H and He will be reduced by one unit

Total number of grid points                  ...   137192
Total number of batches                      ...     1096
Average number of points per batch           ...      125
Average number of grid points per atom       ...     2858
UseSFitting                                  ... on
Initializing property integral containers    ... done (  0.0 sec)

SHARK setup successfully completed in   3.2 seconds

Maximum memory used throughout the entire STARTUP-calculation: 99.3 MB
[ga00:3440983] 24 more processes have sent help message help-mpi-btl-openib.txt / error in device init
[ga00:3440983] Set MCA parameter "orte_base_help_aggregate" to 0 to see all help / error messages
--------------------------------------------------------------------------
WARNING: There was an error initializing an OpenFabrics device.

  Local host:   ga00
  Local device: mlx5_0
--------------------------------------------------------------------------


           ************************************************************
           *        Program running with 25 parallel MPI-processes    *
           *              working on a common directory               *
           ************************************************************
-------------------------------------------------------------------------------
                                 ORCA GUESS
                   Start orbitals & Density for SCF / CASSCF
-------------------------------------------------------------------------------

------------
SCF SETTINGS
------------
Hamiltonian:
 Density Functional     Method          .... DFT(GTOs)
 Exchange Functional    Exchange        .... B88
   X-Alpha parameter    XAlpha          ....  0.666667
   Becke's b parameter  XBeta           ....  0.004200
 Correlation Functional Correlation     .... LYP
 LDA part of GGA corr.  LDAOpt          .... VWN-5
 Gradients option       PostSCFGGA      .... off
 Hybrid DFT is turned on
   Fraction HF Exchange ScalHFX         ....  0.200000
   Scaling of DF-GGA-X  ScalDFX         ....  0.720000
   Scaling of DF-GGA-C  ScalDFC         ....  0.810000
   Scaling of DF-LDA-C  ScalLDAC        ....  1.000000
   Perturbative correction              ....  0.000000
   NL short-range parameter             ....  4.800000
 RI-approximation to the Coulomb term is turned on
   Number of AuxJ basis functions       .... 1554
   RIJ-COSX (HFX calculated with COS-X)).... on


General Settings:
 Integral files         IntName         .... honokiol2-opt_FEC
 Hartree-Fock type      HFTyp           .... RHF
 Total Charge           Charge          ....    0
 Multiplicity           Mult            ....    1
 Number of Electrons    NEL             ....  196
 Basis Dimension        Dim             ....  963
 Nuclear Repulsion      ENuc            ....   2438.3256294532 Eh

Convergence Acceleration:
 AO-DIIS                CNVDIIS         .... on
   Start iteration      DIISMaxIt       ....    12
   Startup error        DIISStart       ....  0.200000
   # of expansion vecs  DIISMaxEq       ....     5
   Bias factor          DIISBfac        ....   1.050
   Max. coefficient     DIISMaxC        ....  10.000
 MO-DIIS                CNVKDIIS        .... off
 Trust-Rad. Augm. Hess. CNVTRAH         .... auto
   Auto Start mean grad. ratio tolernc. ....  1.125000
   Auto Start start iteration           ....    50
   Auto Start num. interpolation iter.  ....    10
   Max. Number of Micro iterations      ....    24
   Max. Number of Macro iterations      .... Maxiter - #DIIS iter
   Number of Davidson start vectors     ....     2
   Converg. threshold    (grad. norm)   ....   1.000e-05
   Grad. Scal. Fac. for Micro threshold ....   0.100
   Minimum threshold for Micro iter.    ....   1.000e-02
   NR start threshold (gradient norm)   ....   1.000e-04
   Initial trust radius                 ....   0.400
   Minimum AH scaling param. (alpha)    ....   1.000
   Maximum AH scaling param. (alpha)    .... 1000.000
   Quad. conv. algorithm                .... NR
   White noise on init. David. guess    .... on
   Maximum white noise                  ....   0.010
   Pseudo random numbers                .... off
   Inactive MOs                         .... canonical
   Orbital update algorithm             .... Taylor
   Preconditioner                       .... Diag
   Full preconditioner red. dimension   ....   250
 SOSCF                  CNVSOSCF        .... on
   Start iteration      SOSCFMaxIt      ....   150
   Startup grad/error   SOSCFStart      ....  0.003300
   Hessian update       SOSCFHessUp     .... L-BFGS
 Level Shifting         CNVShift        .... on
   Level shift para.    LevelShift      ....    0.2500
   Turn off err/grad.   ShiftErr        ....    0.0010
 Zerner damping         CNVZerner       .... off
 Static damping         CNVDamp         .... on
   Fraction old density DampFac         ....    0.7000
   Max. Damping (<1)    DampMax         ....    0.9800
   Min. Damping (>=0)   DampMin         ....    0.0000
   Turn off err/grad.   DampErr         ....    0.1000

SCF Procedure:
 Maximum # iterations   MaxIter         ....   125
 SCF integral mode      SCFMode         .... Direct
   Integral package                     .... SHARK and LIBINT hybrid scheme
 Reset frequency        DirectResetFreq ....    20
 Integral Threshold     Thresh          ....  2.500e-11 Eh
 Primitive CutOff       TCut            ....  2.500e-12 Eh

Convergence Tolerance:
 Convergence Check Mode ConvCheckMode   .... Total+1el-Energy
 Convergence forced     ConvForced      .... 0
 Energy Change          TolE            ....  1.000e-08 Eh
 1-El. energy change                    ....  1.000e-05 Eh
 Orbital Gradient       TolG            ....  1.000e-05
 Orbital Rotation angle TolX            ....  1.000e-05
 DIIS Error             TolErr          ....  5.000e-07

------------------------------
INITIAL GUESS: MODEL POTENTIAL
------------------------------
Loading Hartree-Fock densities                     ... done
Calculating cut-offs                               ... done
Initializing the effective Hamiltonian             ... done
Setting up the integral package (SHARK)            ... done
Starting the Coulomb interaction                   ... done (   0.2 sec)
Making the grid                                    ... done (   0.2 sec)
Mapping shells                                     ... done
Starting the XC term evaluation                    ... done (   0.1 sec)
  promolecular density results
     # of electrons  =    196.002866866
     EX              =   -165.316745750
     EC              =     -6.727383806
     EX+EC           =   -172.044129556
Transforming the Hamiltonian                       ... done (   0.1 sec)
Diagonalizing the Hamiltonian                      ... done (   0.2 sec)
Back transforming the eigenvectors                 ... done (   0.0 sec)
Now organizing SCF variables                       ... done
                      ------------------
                      INITIAL GUESS DONE (   0.9 sec)
                      ------------------
             **** ENERGY FILE WAS UPDATED (honokiol2-opt_FEC.en.tmp) ****
Finished Guess after   1.7 sec
Maximum memory used throughout the entire GUESS-calculation: 81.8 MB
[ga00:3441139] 24 more processes have sent help message help-mpi-btl-openib.txt / error in device init
[ga00:3441139] Set MCA parameter "orte_base_help_aggregate" to 0 to see all help / error messages
--------------------------------------------------------------------------
WARNING: There was an error initializing an OpenFabrics device.

  Local host:   ga00
  Local device: mlx5_0
--------------------------------------------------------------------------


           ************************************************************
           *        Program running with 25 parallel MPI-processes    *
           *              working on a common directory               *
           ************************************************************

-------------------------------------------------------------------------------------------
                                      ORCA LEAN-SCF
                              memory conserving SCF solver
-------------------------------------------------------------------------------------------

--------------------
CPCM SOLVATION MODEL
--------------------
CPCM parameters:
  Epsilon                                         ...      80.1510
  Refrac                                          ...       1.3328
  Rsolv                                           ...       1.3000
  Surface type                                    ... GAUSSIAN VDW
  Discretization scheme                           ... Constant charge density
    Threshold for H atoms                         ...       5.0000 (charges/Ang^2)
    Threshold for non-H atoms                     ...       5.0000 (charges/Ang^2)
  Epsilon function type                           ...         CPCM
Solvent:                                          ... WATER
Radii:
  Scheme                                          ... Element-dependent radii
  Radius for O  used is    3.4469 Bohr (=   1.8240 Ang.)
  Radius for C  used is    3.8550 Bohr (=   2.0400 Ang.)
  Radius for H  used is    2.4944 Bohr (=   1.3200 Ang.)
  Radius for F  used is    3.3335 Bohr (=   1.7640 Ang.)
Calculating surface                               ...        done! (  0.0s)
Cavity surface points                             ...         4316
Cavity Volume                                     ...    2987.2627
Cavity Surface-area                               ...    1522.9231
Calculating surface distance matrix               ...        done! (  0.1s)
Performing Cholesky decomposition & store         ...        done! (  0.4s)
Overall time for CPCM initialization              ...                 0.5s

----------------------------------------D-I-I-S--------------------------------------------
Iteration    Energy (Eh)           Delta-E    RMSDP     MaxDP     DIISErr   Damp  Time(sec)
-------------------------------------------------------------------------------------------
               ***  Starting incremental Fock matrix formation  ***
[ga00:3441303] 24 more processes have sent help message help-mpi-btl-openib.txt / error in device init
[ga00:3441303] Set MCA parameter "orte_base_help_aggregate" to 0 to see all help / error messages
    1    -1287.9089758532263659     0.00e+00  1.26e-03  1.56e-01  2.93e-01  0.700   5.8
    2    -1288.2389306050090454    -3.30e-01  1.22e-03  1.85e-01  1.11e-01  0.700   3.8
                               ***Turning on AO-DIIS***
    3    -1288.3736429956534266    -1.35e-01  4.99e-04  6.42e-02  3.80e-02  0.700   3.5
    4    -1288.4542709028678473    -8.06e-02  6.98e-04  4.88e-02  1.93e-02  0.000   3.3
    5    -1288.6296275224804049    -1.75e-01  2.63e-04  4.13e-02  5.20e-03  0.000   3.4
                              *** Initializing SOSCF ***
---------------------------------------S-O-S-C-F--------------------------------------
Iteration    Energy (Eh)           Delta-E    RMSDP     MaxDP     MaxGrad    Time(sec)
--------------------------------------------------------------------------------------
    6    -1288.6305158981399472    -8.88e-04  9.46e-05  1.39e-02  1.75e-03     3.5
               *** Restarting incremental Fock matrix formation ***
    7    -1288.6305791451613914    -6.32e-05  7.38e-05  8.14e-03  1.78e-04     5.6
    8    -1288.6305784176865927     7.27e-07  1.20e-05  6.26e-04  3.00e-04     4.3
    9    -1288.6305849797631708    -6.56e-06  1.21e-05  1.28e-03  4.57e-05     3.7
   10    -1288.6305848807264738     9.90e-08  2.39e-06  2.88e-04  3.89e-05     3.6
   11    -1288.6305852266659713    -3.46e-07  3.46e-06  3.87e-04  1.27e-05     3.0
   12    -1288.6305852239711385     2.69e-09  1.38e-06  1.18e-04  1.29e-05     3.0
                 **** Energy Check signals convergence ****

               *****************************************************
               *                     SUCCESS                       *
               *           SCF CONVERGED AFTER  12 CYCLES          *
               *****************************************************

Recomputing exchange energy using gridx3       ... done (    7.518 sec)
Old exchange energy                            :    -33.537622876 Eh
New exchange energy                            :    -33.537651076 Eh
Exchange energy change after final integration :     -0.000028200 Eh
Total energy after final integration           :  -1288.630613424 Eh
             **** ENERGY FILE WAS UPDATED (honokiol2-opt_FEC.en.tmp) ****

----------------
TOTAL SCF ENERGY
----------------

Total Energy       :      -1288.63061342426681 Eh          -35065.42168 eV

Components:
Nuclear Repulsion  :       2438.32562945317613 Eh           66350.21356 eV
Electronic Energy  :      -3726.92766706212933 Eh         -101414.85765 eV
One Electron Energy:      -6606.25870210368885 Eh         -179765.43838 eV
Two Electron Energy:       2879.33103504155952 Eh           78350.58073 eV
CPCM Dielectric    :         -0.02854761501796 Eh              -0.77682 eV

Virial components:
Potential Energy   :      -2571.76838308023616 Eh          -69981.37549 eV
Kinetic Energy     :       1283.13776965596935 Eh           34915.95381 eV
Virial Ratio       :          2.00428079033927

DFT components:
N(Alpha)           :       98.000148853378 electrons
N(Beta)            :       98.000148853378 electrons
N(Total)           :      196.000297706756 electrons
E(X)               :     -133.338973496075 Eh       
E(C)               :       -7.927103661719 Eh       
E(XC)              :     -141.266077157794 Eh       

CPCM Solvation Model Properties:
Surface-charge          :         -0.03676604459025
Corrected charge        :         -0.00000000000000
Outlying charge corr.   :          0.00006495009256 Eh               0.00177 eV
Free-energy (cav+disp)  :  This term is not implemented in the current solvation scheme

---------------
SCF CONVERGENCE
---------------

  Last Energy change         ...   -2.6948e-09  Tolerance :   1.0000e-08
  Last MAX-Density change    ...    1.1751e-04  Tolerance :   1.0000e-07
  Last RMS-Density change    ...    1.3808e-06  Tolerance :   5.0000e-09
  Last DIIS Error            ...    1.7470e-03  Tolerance :   5.0000e-07
  Last Orbital Gradient      ...    1.2886e-05  Tolerance :   1.0000e-05
  Last Orbital Rotation      ...    2.1099e-05  Tolerance :   1.0000e-05


----------------
ORBITAL ENERGIES
----------------

  NO   OCC          E(Eh)            E(eV) 
   0   2.0000     -24.695733      -672.0051 
   1   2.0000     -19.208393      -522.6869 
   2   2.0000     -19.204227      -522.5736 
   3   2.0000     -19.152880      -521.1764 
   4   2.0000     -19.147913      -521.0412 
   5   2.0000     -19.145221      -520.9679 
   6   2.0000     -10.373714      -282.2831 
   7   2.0000     -10.328683      -281.0577 
   8   2.0000     -10.251598      -278.9602 
   9   2.0000     -10.234662      -278.4993 
  10   2.0000     -10.232064      -278.4286 
  11   2.0000     -10.184760      -277.1414 
  12   2.0000     -10.182224      -277.0724 
  13   2.0000     -10.181904      -277.0637 
  14   2.0000     -10.181420      -277.0505 
  15   2.0000     -10.179609      -277.0012 
  16   2.0000     -10.175218      -276.8817 
  17   2.0000     -10.174772      -276.8696 
  18   2.0000     -10.174184      -276.8536 
  19   2.0000     -10.172308      -276.8026 
  20   2.0000     -10.171042      -276.7681 
  21   2.0000     -10.170611      -276.7564 
  22   2.0000     -10.169751      -276.7330 
  23   2.0000     -10.169464      -276.7252 
  24   2.0000     -10.167972      -276.6846 
  25   2.0000     -10.166084      -276.6332 
  26   2.0000     -10.157880      -276.4100 
  27   2.0000      -1.237982       -33.6872 
  28   2.0000      -1.179785       -32.1036 
  29   2.0000      -1.075846       -29.2753 
  30   2.0000      -1.072127       -29.1741 
  31   2.0000      -1.057191       -28.7676 
  32   2.0000      -1.055898       -28.7325 
  33   2.0000      -0.870249       -23.6807 
  34   2.0000      -0.853090       -23.2138 
  35   2.0000      -0.810262       -22.0484 
  36   2.0000      -0.797326       -21.6963 
  37   2.0000      -0.789840       -21.4926 
  38   2.0000      -0.774023       -21.0622 
  39   2.0000      -0.756621       -20.5887 
  40   2.0000      -0.744187       -20.2504 
  41   2.0000      -0.721916       -19.6443 
  42   2.0000      -0.698166       -18.9981 
  43   2.0000      -0.685923       -18.6649 
  44   2.0000      -0.676132       -18.3985 
  45   2.0000      -0.639928       -17.4133 
  46   2.0000      -0.633635       -17.2421 
  47   2.0000      -0.614884       -16.7318 
  48   2.0000      -0.596368       -16.2280 
  49   2.0000      -0.589111       -16.0305 
  50   2.0000      -0.574220       -15.6253 
  51   2.0000      -0.566098       -15.4043 
  52   2.0000      -0.563868       -15.3436 
  53   2.0000      -0.552317       -15.0293 
  54   2.0000      -0.547492       -14.8980 
  55   2.0000      -0.536605       -14.6018 
  56   2.0000      -0.529305       -14.4031 
  57   2.0000      -0.499553       -13.5935 
  58   2.0000      -0.494719       -13.4620 
  59   2.0000      -0.492453       -13.4003 
  60   2.0000      -0.484390       -13.1809 
  61   2.0000      -0.480608       -13.0780 
  62   2.0000      -0.477314       -12.9884 
  63   2.0000      -0.468996       -12.7620 
  64   2.0000      -0.457372       -12.4457 
  65   2.0000      -0.443913       -12.0795 
  66   2.0000      -0.441538       -12.0149 
  67   2.0000      -0.437286       -11.8992 
  68   2.0000      -0.433276       -11.7900 
  69   2.0000      -0.430098       -11.7036 
  70   2.0000      -0.427698       -11.6382 
  71   2.0000      -0.418591       -11.3904 
  72   2.0000      -0.415317       -11.3014 
  73   2.0000      -0.414012       -11.2658 
  74   2.0000      -0.411308       -11.1923 
  75   2.0000      -0.404019       -10.9939 
  76   2.0000      -0.399629       -10.8745 
  77   2.0000      -0.393167       -10.6986 
  78   2.0000      -0.387447       -10.5430 
  79   2.0000      -0.371702       -10.1145 
  80   2.0000      -0.370271       -10.0756 
  81   2.0000      -0.364920        -9.9300 
  82   2.0000      -0.360890        -9.8203 
  83   2.0000      -0.356523        -9.7015 
  84   2.0000      -0.355040        -9.6611 
  85   2.0000      -0.349549        -9.5117 
  86   2.0000      -0.346608        -9.4317 
  87   2.0000      -0.337704        -9.1894 
  88   2.0000      -0.335434        -9.1276 
  89   2.0000      -0.334871        -9.1123 
  90   2.0000      -0.329456        -8.9650 
  91   2.0000      -0.322063        -8.7638 
  92   2.0000      -0.273783        -7.4500 
  93   2.0000      -0.265977        -7.2376 
  94   2.0000      -0.260573        -7.0905 
  95   2.0000      -0.255819        -6.9612 
  96   2.0000      -0.232196        -6.3184 
  97   2.0000      -0.215515        -5.8645 
  98   0.0000      -0.026274        -0.7149 
  99   0.0000      -0.022970        -0.6250 
 100   0.0000      -0.005346        -0.1455 
 101   0.0000       0.001952         0.0531 
 102   0.0000       0.002667         0.0726 
 103   0.0000       0.004953         0.1348 
 104   0.0000       0.022639         0.6160 
 105   0.0000       0.030804         0.8382 
 106   0.0000       0.047825         1.3014 
 107   0.0000       0.057060         1.5527 
 108   0.0000       0.062544         1.7019 
*Only the first 10 virtual orbitals were printed.

                    ********************************
                    * MULLIKEN POPULATION ANALYSIS *
                    ********************************

-----------------------
MULLIKEN ATOMIC CHARGES
-----------------------
   0 O :   -0.443686
   1 O :   -0.449139
   2 C :    0.101717
   3 C :    0.081067
   4 C :    0.054181
   5 C :   -0.277591
   6 C :    0.094759
   7 C :   -0.272680
   8 C :    0.231379
   9 C :   -0.202006
  10 C :    0.267897
  11 C :   -0.220277
  12 C :   -0.174091
  13 C :   -0.178121
  14 C :   -0.263892
  15 C :   -0.265062
  16 C :   -0.184438
  17 C :   -0.131683
  18 C :   -0.302617
  19 C :   -0.327554
  20 H :    0.142217
  21 H :    0.144477
  22 H :    0.136544
  23 H :    0.139053
  24 H :    0.133885
  25 H :    0.115851
  26 H :    0.124874
  27 H :    0.130375
  28 H :    0.134127
  29 H :    0.124702
  30 H :    0.136604
  31 H :    0.127482
  32 H :    0.339981
  33 H :    0.348285
  34 H :    0.146381
  35 H :    0.146980
  36 H :    0.136666
  37 H :    0.130998
  38 H :    0.143379
  39 H :    0.150595
  40 O :   -0.262528
  41 C :   -0.025942
  42 C :    0.249835
  43 C :    0.452164
  44 O :   -0.354793
  45 O :   -0.257378
  46 F :   -0.236579
  47 H :    0.163602
Sum of atomic charges:   -0.0000000

--------------------------------
MULLIKEN REDUCED ORBITAL CHARGES
--------------------------------
  0 O s       :     3.756990  s :     3.756990
      pz      :     1.520431  p :     4.655299
      px      :     1.377070
      py      :     1.757798
      dz2     :     0.009507  d :     0.029677
      dxz     :     0.003822
      dyz     :     0.006652
      dx2y2   :     0.007119
      dxy     :     0.002577
      f0      :     0.000201  f :     0.001720
      f+1     :     0.000343
      f-1     :     0.000295
      f+2     :     0.000211
      f-2     :     0.000209
      f+3     :     0.000368
      f-3     :     0.000094

  1 O s       :     3.774830  s :     3.774830
      pz      :     1.551348  p :     4.642914
      px      :     1.327535
      py      :     1.764030
      dz2     :     0.004909  d :     0.029744
      dxz     :     0.012411
      dyz     :     0.003842
      dx2y2   :     0.004169
      dxy     :     0.004413
      f0      :     0.000018  f :     0.001651
      f+1     :     0.000334
      f-1     :     0.000068
      f+2     :     0.000279
      f-2     :     0.000259
      f+3     :     0.000302
      f-3     :     0.000390

  2 C s       :     3.257128  s :     3.257128
      pz      :     0.872601  p :     2.523468
      px      :     0.751367
      py      :     0.899500
      dz2     :     0.022408  d :     0.108057
      dxz     :     0.025250
      dyz     :     0.016811
      dx2y2   :     0.021223
      dxy     :     0.022364
      f0      :     0.001436  f :     0.009630
      f+1     :     0.001362
      f-1     :     0.001282
      f+2     :     0.001690
      f-2     :     0.001459
      f+3     :     0.001172
      f-3     :     0.001230

  3 C s       :     3.252959  s :     3.252959
      pz      :     0.852658  p :     2.535074
      px      :     0.731850
      py      :     0.950567
      dz2     :     0.028501  d :     0.121124
      dxz     :     0.028560
      dyz     :     0.020287
      dx2y2   :     0.020866
      dxy     :     0.022910
      f0      :     0.001553  f :     0.009776
      f+1     :     0.002368
      f-1     :     0.000726
      f+2     :     0.001285
      f-2     :     0.001606
      f+3     :     0.001066
      f-3     :     0.001171

  4 C s       :     3.225908  s :     3.225908
      pz      :     0.824299  p :     2.590228
      px      :     0.828005
      py      :     0.937923
      dz2     :     0.032044  d :     0.120004
      dxz     :     0.026260
      dyz     :     0.019016
      dx2y2   :     0.018975
      dxy     :     0.023709
      f0      :     0.001547  f :     0.009680
      f+1     :     0.002240
      f-1     :     0.000788
      f+2     :     0.001512
      f-2     :     0.001325
      f+3     :     0.001272
      f-3     :     0.000997

  5 C s       :     3.282612  s :     3.282612
      pz      :     0.973620  p :     2.900658
      px      :     0.942704
      py      :     0.984334
      dz2     :     0.019427  d :     0.086741
      dxz     :     0.019277
      dyz     :     0.010012
      dx2y2   :     0.014613
      dxy     :     0.023411
      f0      :     0.000725  f :     0.007580
      f+1     :     0.001605
      f-1     :     0.000661
      f+2     :     0.001060
      f-2     :     0.001174
      f+3     :     0.001247
      f-3     :     0.001108

  6 C s       :     3.177134  s :     3.177134
      pz      :     0.867453  p :     2.592033
      px      :     0.833468
      py      :     0.891112
      dz2     :     0.027934  d :     0.126302
      dxz     :     0.029184
      dyz     :     0.017957
      dx2y2   :     0.028774
      dxy     :     0.022453
      f0      :     0.001139  f :     0.009772
      f+1     :     0.001706
      f-1     :     0.001402
      f+2     :     0.001657
      f-2     :     0.001341
      f+3     :     0.001327
      f-3     :     0.001199

  7 C s       :     3.285860  s :     3.285860
      pz      :     0.953992  p :     2.897739
      px      :     0.957001
      py      :     0.986746
      dz2     :     0.017782  d :     0.081562
      dxz     :     0.019369
      dyz     :     0.014821
      dx2y2   :     0.011336
      dxy     :     0.018255
      f0      :     0.001382  f :     0.007520
      f+1     :     0.001189
      f-1     :     0.000620
      f+2     :     0.001150
      f-2     :     0.001389
      f+3     :     0.001131
      f-3     :     0.000658

  8 C s       :     3.038279  s :     3.038279
      pz      :     0.768586  p :     2.546323
      px      :     0.917876
      py      :     0.859862
      dz2     :     0.040098  d :     0.168378
      dxz     :     0.033942
      dyz     :     0.030927
      dx2y2   :     0.035344
      dxy     :     0.028068
      f0      :     0.002742  f :     0.015641
      f+1     :     0.002420
      f-1     :     0.002549
      f+2     :     0.002691
      f-2     :     0.002074
      f+3     :     0.001585
      f-3     :     0.001581

  9 C s       :     3.282074  s :     3.282074
      pz      :     0.922621  p :     2.829267
      px      :     0.953902
      py      :     0.952744
      dz2     :     0.015815  d :     0.083327
      dxz     :     0.028460
      dyz     :     0.012026
      dx2y2   :     0.015483
      dxy     :     0.011542
      f0      :     0.001361  f :     0.007338
      f+1     :     0.001350
      f-1     :     0.000725
      f+2     :     0.001286
      f-2     :     0.000793
      f+3     :     0.001141
      f-3     :     0.000682

 10 C s       :     3.039716  s :     3.039716
      pz      :     0.878209  p :     2.509741
      px      :     0.724717
      py      :     0.906815
      dz2     :     0.033839  d :     0.167331
      dxz     :     0.046943
      dyz     :     0.024313
      dx2y2   :     0.025022
      dxy     :     0.037214
      f0      :     0.001981  f :     0.015315
      f+1     :     0.003561
      f-1     :     0.000879
      f+2     :     0.001911
      f-2     :     0.002670
      f+3     :     0.002281
      f-3     :     0.002031

 11 C s       :     3.270554  s :     3.270554
      pz      :     0.996127  p :     2.864586
      px      :     0.946147
      py      :     0.922312
      dz2     :     0.012174  d :     0.079680
      dxz     :     0.013892
      dyz     :     0.019084
      dx2y2   :     0.013516
      dxy     :     0.021014
      f0      :     0.000450  f :     0.005457
      f+1     :     0.000980
      f-1     :     0.000397
      f+2     :     0.000581
      f-2     :     0.001211
      f+3     :     0.000768
      f-3     :     0.001069

 12 C s       :     3.237581  s :     3.237581
      pz      :     0.867824  p :     2.849212
      px      :     0.968433
      py      :     1.012954
      dz2     :     0.030982  d :     0.081740
      dxz     :     0.014543
      dyz     :     0.014542
      dx2y2   :     0.014692
      dxy     :     0.006981
      f0      :     0.001035  f :     0.005559
      f+1     :     0.001272
      f-1     :     0.000879
      f+2     :     0.000854
      f-2     :     0.000699
      f+3     :     0.000076
      f-3     :     0.000744

 13 C s       :     3.235058  s :     3.235058
      pz      :     0.941503  p :     2.851232
      px      :     0.957661
      py      :     0.952068
      dz2     :     0.023913  d :     0.084449
      dxz     :     0.016243
      dyz     :     0.016561
      dx2y2   :     0.017084
      dxy     :     0.010647
      f0      :     0.001258  f :     0.007382
      f+1     :     0.000872
      f-1     :     0.001146
      f+2     :     0.001418
      f-2     :     0.001154
      f+3     :     0.000625
      f-3     :     0.000909

 14 C s       :     3.313929  s :     3.313929
      pz      :     0.960041  p :     2.867314
      px      :     0.907909
      py      :     0.999364
      dz2     :     0.013756  d :     0.075120
      dxz     :     0.018539
      dyz     :     0.009686
      dx2y2   :     0.012475
      dxy     :     0.020664
      f0      :     0.000646  f :     0.007529
      f+1     :     0.001545
      f-1     :     0.000712
      f+2     :     0.001060
      f-2     :     0.001203
      f+3     :     0.001278
      f-3     :     0.001086

 15 C s       :     3.309307  s :     3.309307
      pz      :     0.958152  p :     2.873945
      px      :     0.941129
      py      :     0.974664
      dz2     :     0.015516  d :     0.074275
      dxz     :     0.016197
      dyz     :     0.014072
      dx2y2   :     0.013973
      dxy     :     0.014517
      f0      :     0.001317  f :     0.007535
      f+1     :     0.001139
      f-1     :     0.000641
      f+2     :     0.001248
      f-2     :     0.001402
      f+3     :     0.001135
      f-3     :     0.000654

 16 C s       :     3.258856  s :     3.258856
      pz      :     0.990644  p :     2.836375
      px      :     0.945701
      py      :     0.900031
      dz2     :     0.004532  d :     0.082399
      dxz     :     0.019139
      dyz     :     0.012683
      dx2y2   :     0.014736
      dxy     :     0.031309
      f0      :     0.000902  f :     0.006808
      f+1     :     0.000548
      f-1     :     0.000440
      f+2     :     0.000996
      f-2     :     0.000875
      f+3     :     0.001330
      f-3     :     0.001717

 17 C s       :     3.230077  s :     3.230077
      pz      :     0.917505  p :     2.812680
      px      :     0.922188
      py      :     0.972987
      dz2     :     0.026755  d :     0.081901
      dxz     :     0.013994
      dyz     :     0.011414
      dx2y2   :     0.021296
      dxy     :     0.008443
      f0      :     0.001100  f :     0.007025
      f+1     :     0.001017
      f-1     :     0.001220
      f+2     :     0.001418
      f-2     :     0.000846
      f+3     :     0.000604
      f-3     :     0.000820

 18 C s       :     3.278578  s :     3.278578
      pz      :     1.001560  p :     2.973671
      px      :     0.918998
      py      :     1.053114
      dz2     :     0.003209  d :     0.045632
      dxz     :     0.012223
      dyz     :     0.002404
      dx2y2   :     0.006149
      dxy     :     0.021647
      f0      :     0.000833  f :     0.004735
      f+1     :     0.000406
      f-1     :     0.000239
      f+2     :     0.000626
      f-2     :     0.000653
      f+3     :     0.001083
      f-3     :     0.000895

 19 C s       :     3.284125  s :     3.284125
      pz      :     0.990528  p :     2.993864
      px      :     1.023233
      py      :     0.980103
      dz2     :     0.013377  d :     0.044711
      dxz     :     0.009242
      dyz     :     0.003795
      dx2y2   :     0.014118
      dxy     :     0.004180
      f0      :     0.000483  f :     0.004853
      f+1     :     0.000739
      f-1     :     0.000870
      f+2     :     0.001065
      f-2     :     0.000516
      f+3     :     0.000421
      f-3     :     0.000759

 20 H s       :     0.835385  s :     0.835385
      pz      :     0.012380  p :     0.022399
      px      :     0.003758
      py      :     0.006260

 21 H s       :     0.833111  s :     0.833111
      pz      :     0.006633  p :     0.022412
      px      :     0.006551
      py      :     0.009228

 22 H s       :     0.841208  s :     0.841208
      pz      :     0.007627  p :     0.022249
      px      :     0.010112
      py      :     0.004509

 23 H s       :     0.839322  s :     0.839322
      pz      :     0.005488  p :     0.021625
      px      :     0.008207
      py      :     0.007929

 24 H s       :     0.843840  s :     0.843840
      pz      :     0.011021  p :     0.022275
      px      :     0.004912
      py      :     0.006342

 25 H s       :     0.862509  s :     0.862509
      pz      :     0.004227  p :     0.021640
      px      :     0.004440
      py      :     0.012973

 26 H s       :     0.853161  s :     0.853161
      pz      :     0.004442  p :     0.021965
      px      :     0.012288
      py      :     0.005235

 27 H s       :     0.847416  s :     0.847416
      pz      :     0.004836  p :     0.022209
      px      :     0.012186
      py      :     0.005187

 28 H s       :     0.843461  s :     0.843461
      pz      :     0.012270  p :     0.022412
      px      :     0.003563
      py      :     0.006579

 29 H s       :     0.852957  s :     0.852957
      pz      :     0.006813  p :     0.022340
      px      :     0.006144
      py      :     0.009383

 30 H s       :     0.841181  s :     0.841181
      pz      :     0.006145  p :     0.022215
      px      :     0.007133
      py      :     0.008937

 31 H s       :     0.850625  s :     0.850625
      pz      :     0.004275  p :     0.021893
      px      :     0.004518
      py      :     0.013100

 32 H s       :     0.611093  s :     0.611093
      pz      :     0.011055  p :     0.048927
      px      :     0.024290
      py      :     0.013581

 33 H s       :     0.602713  s :     0.602713
      pz      :     0.018257  p :     0.049001
      px      :     0.015529
      py      :     0.015215

 34 H s       :     0.831370  s :     0.831370
      pz      :     0.005482  p :     0.022249
      px      :     0.005079
      py      :     0.011688

 35 H s       :     0.831368  s :     0.831368
      pz      :     0.005839  p :     0.021653
      px      :     0.007632
      py      :     0.008181

 36 H s       :     0.841251  s :     0.841251
      pz      :     0.010529  p :     0.022083
      px      :     0.007468
      py      :     0.004086

 37 H s       :     0.847139  s :     0.847139
      pz      :     0.004060  p :     0.021863
      px      :     0.004672
      py      :     0.013132

 38 H s       :     0.835692  s :     0.835692
      pz      :     0.005325  p :     0.020928
      px      :     0.008948
      py      :     0.006656

 39 H s       :     0.827864  s :     0.827864
      pz      :     0.004083  p :     0.021540
      px      :     0.002666
      py      :     0.014792

 40 O s       :     3.778882  s :     3.778882
      pz      :     1.407472  p :     4.440561
      px      :     1.454327
      py      :     1.578762
      dz2     :     0.011954  d :     0.040995
      dxz     :     0.007435
      dyz     :     0.007058
      dx2y2   :     0.008479
      dxy     :     0.006068
      f0      :     0.000360  f :     0.002091
      f+1     :     0.000262
      f-1     :     0.000451
      f+2     :     0.000267
      f-2     :     0.000264
      f+3     :     0.000239
      f-3     :     0.000247

 41 C s       :     3.226380  s :     3.226380
      pz      :     1.023966  p :     2.690375
      px      :     0.659142
      py      :     1.007267
      dz2     :     0.017324  d :     0.099257
      dxz     :     0.023584
      dyz     :     0.008309
      dx2y2   :     0.026547
      dxy     :     0.023492
      f0      :     0.001280  f :     0.009930
      f+1     :     0.001330
      f-1     :     0.001079
      f+2     :     0.001329
      f-2     :     0.001010
      f+3     :     0.001883
      f-3     :     0.002019

 42 C s       :     3.188077  s :     3.188077
      pz      :     0.786957  p :     2.343632
      px      :     0.826019
      py      :     0.730656
      dz2     :     0.041114  d :     0.197250
      dxz     :     0.036954
      dyz     :     0.035540
      dx2y2   :     0.037936
      dxy     :     0.045704
      f0      :     0.002083  f :     0.021207
      f+1     :     0.002625
      f-1     :     0.003013
      f+2     :     0.003618
      f-2     :     0.003830
      f+3     :     0.002546
      f-3     :     0.003491

 43 C s       :     2.997660  s :     2.997660
      pz      :     0.743662  p :     2.222936
      px      :     0.713494
      py      :     0.765780
      dz2     :     0.071705  d :     0.294603
      dxz     :     0.065084
      dyz     :     0.040701
      dx2y2   :     0.053226
      dxy     :     0.063886
      f0      :     0.004105  f :     0.032637
      f+1     :     0.008269
      f-1     :     0.002462
      f+2     :     0.004417
      f-2     :     0.004908
      f+3     :     0.004352
      f-3     :     0.004124

 44 O s       :     3.816779  s :     3.816779
      pz      :     1.589543  p :     4.508671
      px      :     1.428894
      py      :     1.490234
      dz2     :     0.004828  d :     0.027408
      dxz     :     0.006509
      dyz     :     0.003042
      dx2y2   :     0.005869
      dxy     :     0.007160
      f0      :     0.000134  f :     0.001935
      f+1     :     0.000479
      f-1     :     0.000082
      f+2     :     0.000314
      f-2     :     0.000315
      f+3     :     0.000359
      f-3     :     0.000253

 45 O s       :     3.779188  s :     3.779188
      pz      :     1.540082  p :     4.435847
      px      :     1.207457
      py      :     1.688308
      dz2     :     0.007826  d :     0.040235
      dxz     :     0.013920
      dyz     :     0.005753
      dx2y2   :     0.006453
      dxy     :     0.006283
      f0      :     0.000174  f :     0.002107
[...]
      dxy     :     0.077633
      f0      :     0.003997  f :     0.043023
      f+1     :     0.010449
      f-1     :     0.002892
      f+2     :     0.006130
      f-2     :     0.007563
      f+3     :     0.006812
      f-3     :     0.005180

 15 C s       :     2.760758  s :     2.760758
      pz      :     1.002497  p :     2.959440
      px      :     1.002586
      py      :     0.954357
      dz2     :     0.071353  d :     0.368845
      dxz     :     0.099079
      dyz     :     0.067091
      dx2y2   :     0.060327
      dxy     :     0.070995
      f0      :     0.007073  f :     0.042760
      f+1     :     0.007246
      f-1     :     0.005142
      f+2     :     0.007388
      f-2     :     0.005030
      f+3     :     0.005874
      f-3     :     0.005006

 16 C s       :     2.798974  s :     2.798974
      pz      :     0.885721  p :     2.959910
      px      :     1.088399
      py      :     0.985790
      dz2     :     0.025690  d :     0.399885
      dxz     :     0.070679
      dyz     :     0.050916
      dx2y2   :     0.100746
      dxy     :     0.151855
      f0      :     0.003661  f :     0.041248
      f+1     :     0.004193
      f-1     :     0.002750
      f+2     :     0.006754
      f-2     :     0.003463
      f+3     :     0.008396
      f-3     :     0.012031

 17 C s       :     2.797690  s :     2.797690
      pz      :     0.986739  p :     2.956654
      px      :     0.924573
      py      :     1.045342
      dz2     :     0.112441  d :     0.398584
      dxz     :     0.069342
      dyz     :     0.080736
      dx2y2   :     0.090966
      dxy     :     0.045099
      f0      :     0.005772  f :     0.041705
      f+1     :     0.005548
      f-1     :     0.007901
      f+2     :     0.006969
      f-2     :     0.007161
      f+3     :     0.003572
      f-3     :     0.004783

 18 C s       :     2.859646  s :     2.859646
      pz      :     0.963304  p :     3.088533
      px      :     1.100972
      py      :     1.024256
      dz2     :     0.015129  d :     0.240846
      dxz     :     0.045770
      dyz     :     0.008570
      dx2y2   :     0.058860
      dxy     :     0.112516
      f0      :     0.003198  f :     0.027797
      f+1     :     0.003370
      f-1     :     0.001069
      f+2     :     0.004432
      f-2     :     0.002103
      f+3     :     0.006596
      f-3     :     0.007029

 19 C s       :     2.857555  s :     2.857555
      pz      :     1.037499  p :     3.104744
      px      :     0.998446
      py      :     1.068800
      dz2     :     0.061465  d :     0.239265
      dxz     :     0.042540
      dyz     :     0.042046
      dx2y2   :     0.067994
      dxy     :     0.025220
      f0      :     0.002572  f :     0.028013
      f+1     :     0.003629
      f-1     :     0.005376
      f+2     :     0.004685
      f-2     :     0.005328
      f+3     :     0.002511
      f-3     :     0.003912

 20 H s       :     0.782061  s :     0.782061
      pz      :     0.031590  p :     0.059432
      px      :     0.010606
      py      :     0.017236

 21 H s       :     0.782332  s :     0.782332
      pz      :     0.017691  p :     0.059406
      px      :     0.017620
      py      :     0.024095

 22 H s       :     0.784762  s :     0.784762
      pz      :     0.020290  p :     0.059525
      px      :     0.026174
      py      :     0.013061

 23 H s       :     0.786203  s :     0.786203
      pz      :     0.016212  p :     0.058407
      px      :     0.022076
      py      :     0.020120

 24 H s       :     0.782937  s :     0.782937
      pz      :     0.028085  p :     0.058414
      px      :     0.014092
      py      :     0.016237

 25 H s       :     0.791770  s :     0.791770
      pz      :     0.011830  p :     0.057970
      px      :     0.012654
      py      :     0.033486

 26 H s       :     0.789448  s :     0.789448
      pz      :     0.012025  p :     0.057856
      px      :     0.030021
      py      :     0.015810

 27 H s       :     0.789534  s :     0.789534
      pz      :     0.013600  p :     0.058891
      px      :     0.030814
      py      :     0.014477

 28 H s       :     0.785895  s :     0.785895
      pz      :     0.031325  p :     0.059987
      px      :     0.010816
      py      :     0.017846

 29 H s       :     0.789454  s :     0.789454
      pz      :     0.018333  p :     0.059854
      px      :     0.017008
      py      :     0.024513

 30 H s       :     0.793165  s :     0.793165
      pz      :     0.016008  p :     0.059281
      px      :     0.019016
      py      :     0.024257

 31 H s       :     0.797920  s :     0.797920
      pz      :     0.012559  p :     0.058771
      px      :     0.013153
      py      :     0.033058

 32 H s       :     0.658281  s :     0.658281
      pz      :     0.031492  p :     0.160936
      px      :     0.089961
      py      :     0.039483

 33 H s       :     0.650242  s :     0.650242
      pz      :     0.070718  p :     0.160165
      px      :     0.045364
      py      :     0.044083

 34 H s       :     0.810310  s :     0.810310
      pz      :     0.015438  p :     0.062515
      px      :     0.014184
      py      :     0.032892

 35 H s       :     0.809270  s :     0.809270
      pz      :     0.017098  p :     0.062192
      px      :     0.020302
      py      :     0.024791

 36 H s       :     0.814567  s :     0.814567
      pz      :     0.027954  p :     0.062243
      px      :     0.020303
      py      :     0.013986

 37 H s       :     0.814767  s :     0.814767
      pz      :     0.013028  p :     0.061908
      px      :     0.014077
      py      :     0.034804

 38 H s       :     0.794326  s :     0.794326
      pz      :     0.015721  p :     0.059412
      px      :     0.024080
      py      :     0.019611

 39 H s       :     0.793838  s :     0.793838
      pz      :     0.013092  p :     0.061469
      px      :     0.008082
      py      :     0.040295

 40 O s       :     3.265687  s :     3.265687
      pz      :     1.417297  p :     4.348684
      px      :     1.432157
      py      :     1.499229
      dz2     :     0.028837  d :     0.105653
      dxz     :     0.020117
      dyz     :     0.020648
      dx2y2   :     0.019314
      dxy     :     0.016736
      f0      :     0.001266  f :     0.007454
      f+1     :     0.001424
      f-1     :     0.001392
      f+2     :     0.000868
      f-2     :     0.000787
      f+3     :     0.000997
      f-3     :     0.000720

 41 C s       :     2.814378  s :     2.814378
      pz      :     1.049322  p :     2.888328
      px      :     0.801877
      py      :     1.037129
      dz2     :     0.092587  d :     0.449090
      dxz     :     0.099582
      dyz     :     0.034384
      dx2y2   :     0.132655
      dxy     :     0.089882
      f0      :     0.006212  f :     0.068369
      f+1     :     0.009742
      f-1     :     0.006158
      f+2     :     0.009452
      f-2     :     0.010971
      f+3     :     0.012347
      f-3     :     0.013488

 42 C s       :     2.789716  s :     2.789716
      pz      :     0.910599  p :     2.672104
      px      :     0.915548
      py      :     0.845957
      dz2     :     0.124050  d :     0.775485
      dxz     :     0.176642
      dyz     :     0.169511
      dx2y2   :     0.114405
      dxy     :     0.190878
      f0      :     0.018382  f :     0.141593
      f+1     :     0.019593
      f-1     :     0.018836
      f+2     :     0.022732
      f-2     :     0.021672
      f+3     :     0.019488
      f-3     :     0.020889

 43 C s       :     2.738932  s :     2.738932
      pz      :     0.865342  p :     2.581472
      px      :     0.913433
      py      :     0.802698
      dz2     :     0.247120  d :     1.074277
      dxz     :     0.267102
      dyz     :     0.156096
      dx2y2   :     0.211774
      dxy     :     0.192184
      f0      :     0.024666  f :     0.193406
      f+1     :     0.049779
      f-1     :     0.016881
      f+2     :     0.023686
      f-2     :     0.029976
      f+3     :     0.026209
      f-3     :     0.022209

 44 O s       :     3.387480  s :     3.387480
      pz      :     1.517963  p :     4.440886
      px      :     1.511531
      py      :     1.411391
      dz2     :     0.008876  d :     0.065460
      dxz     :     0.019484
      dyz     :     0.006756
      dx2y2   :     0.014533
      dxy     :     0.015812
      f0      :     0.000728  f :     0.006679
      f+1     :     0.001137
      f-1     :     0.000228
      f+2     :     0.001208
      f-2     :     0.001293
      f+3     :     0.000942
      f-3     :     0.001143

 45 O s       :     3.264420  s :     3.264420
      pz      :     1.517164  p :     4.338031
      px      :     1.264307
      py      :     1.556560
      dz2     :     0.017928  d :     0.104118
      dxz     :     0.035393
      dyz     :     0.009387
      dx2y2   :     0.023857
      dxy     :     0.017553
      f0      :     0.000901  f :     0.007448
      f+1     :     0.001719
      f-1     :     0.000431
      f+2     :     0.001474
      f-2     :     0.001068
      f+3     :     0.000976
      f-3     :     0.000879

 46 F s       :     3.622219  s :     3.622219
      pz      :     1.794701  p :     5.237458
      px      :     1.780042
      py      :     1.662715
      dz2     :     0.003566  d :     0.028112
      dxz     :     0.003220
      dyz     :     0.007522
      dx2y2   :     0.005724
      dxy     :     0.008080
      f0      :     0.000130  f :     0.001328
      f+1     :     0.000079
      f-1     :     0.000183
      f+2     :     0.000194
      f-2     :     0.000273
      f+3     :     0.000255
      f-3     :     0.000214

 47 H s       :     0.789667  s :     0.789667
      pz      :     0.037320  p :     0.061167
      px      :     0.010097
      py      :     0.013750



                      *****************************
                      * MAYER POPULATION ANALYSIS *
                      *****************************

  NA   - Mulliken gross atomic population
  ZA   - Total nuclear charge
  QA   - Mulliken gross atomic charge
  VA   - Mayer's total valence
  BVA  - Mayer's bonded valence
  FA   - Mayer's free valence

  ATOM       NA         ZA         QA         VA         BVA        FA
  0 O      8.4437     8.0000    -0.4437     2.0436     2.0436    -0.0000
  1 O      8.4491     8.0000    -0.4491     2.0117     2.0117     0.0000
  2 C      5.8983     6.0000     0.1017     3.3527     3.3527     0.0000
  3 C      5.9189     6.0000     0.0811     3.6120     3.6120     0.0000
  4 C      5.9458     6.0000     0.0542     3.6029     3.6029    -0.0000
  5 C      6.2776     6.0000    -0.2776     3.9369     3.9369    -0.0000
  6 C      5.9052     6.0000     0.0948     3.7258     3.7258    -0.0000
  7 C      6.2727     6.0000    -0.2727     3.8126     3.8126    -0.0000
  8 C      5.7686     6.0000     0.2314     3.8917     3.8917    -0.0000
  9 C      6.2020     6.0000    -0.2020     3.8575     3.8575    -0.0000
 10 C      5.7321     6.0000     0.2679     3.7655     3.7655    -0.0000
 11 C      6.2203     6.0000    -0.2203     3.8839     3.8839     0.0000
 12 C      6.1741     6.0000    -0.1741     3.8341     3.8341    -0.0000
 13 C      6.1781     6.0000    -0.1781     3.8967     3.8967     0.0000
 14 C      6.2639     6.0000    -0.2639     3.8585     3.8585    -0.0000
 15 C      6.2651     6.0000    -0.2651     3.9555     3.9555     0.0000
 16 C      6.1844     6.0000    -0.1844     3.8130     3.8130    -0.0000
 17 C      6.1317     6.0000    -0.1317     3.8144     3.8144    -0.0000
 18 C      6.3026     6.0000    -0.3026     3.8945     3.8945     0.0000
 19 C      6.3276     6.0000    -0.3276     3.9176     3.9176    -0.0000
 20 H      0.8578     1.0000     0.1422     0.9770     0.9770     0.0000
 21 H      0.8555     1.0000     0.1445     0.9787     0.9787    -0.0000
 22 H      0.8635     1.0000     0.1365     0.9770     0.9770    -0.0000
 23 H      0.8609     1.0000     0.1391     0.9668     0.9668     0.0000
 24 H      0.8661     1.0000     0.1339     0.9698     0.9698     0.0000
 25 H      0.8841     1.0000     0.1159     0.9692     0.9692    -0.0000
 26 H      0.8751     1.0000     0.1249     0.9665     0.9665    -0.0000
 27 H      0.8696     1.0000     0.1304     0.9695     0.9695     0.0000
 28 H      0.8659     1.0000     0.1341     0.9840     0.9840     0.0000
 29 H      0.8753     1.0000     0.1247     0.9900     0.9900     0.0000
 30 H      0.8634     1.0000     0.1366     0.9732     0.9732    -0.0000
 31 H      0.8725     1.0000     0.1275     0.9706     0.9706    -0.0000
 32 H      0.6600     1.0000     0.3400     0.9242     0.9242     0.0000
 33 H      0.6517     1.0000     0.3483     0.9055     0.9055     0.0000
 34 H      0.8536     1.0000     0.1464     0.9690     0.9690     0.0000
 35 H      0.8530     1.0000     0.1470     0.9706     0.9706     0.0000
 36 H      0.8633     1.0000     0.1367     0.9695     0.9695    -0.0000
 37 H      0.8690     1.0000     0.1310     0.9730     0.9730    -0.0000
 38 H      0.8566     1.0000     0.1434     0.9668     0.9668     0.0000
 39 H      0.8494     1.0000     0.1506     0.9681     0.9681     0.0000
 40 O      8.2625     8.0000    -0.2625     2.1444     2.1444    -0.0000
 41 C      6.0259     6.0000    -0.0259     3.7904     3.7904    -0.0000
 42 C      5.7502     6.0000     0.2498     4.0292     4.0292     0.0000
 43 C      5.5478     6.0000     0.4522     4.3907     4.3907    -0.0000
 44 O      8.3548     8.0000    -0.3548     2.1344     2.1344    -0.0000
 45 O      8.2574     8.0000    -0.2574     2.1176     2.1176    -0.0000
 46 F      9.2366     9.0000    -0.2366     1.0244     1.0244    -0.0000
 47 H      0.8364     1.0000     0.1636     0.9685     0.9685     0.0000

  Mayer bond orders larger than 0.100000
B(  0-O ,  8-C ) :   1.1168 B(  0-O , 32-H ) :   0.8384 B(  1-O , 10-C ) :   1.0533 
B(  1-O , 33-H ) :   0.8427 B(  2-C ,  3-C ) :   0.8759 B(  2-C ,  7-C ) :   1.2969 
B(  2-C ,  8-C ) :   1.2398 B(  3-C ,  5-C ) :   1.3848 B(  3-C ,  9-C ) :   1.3234 
B(  4-C ,  5-C ) :   1.3621 B(  4-C , 10-C ) :   1.2682 B(  4-C , 11-C ) :   0.9373 
B(  5-C , 20-H ) :   0.9678 B(  6-C ,  7-C ) :   1.3742 B(  6-C , 12-C ) :   0.9306 
B(  6-C , 13-C ) :   1.3550 B(  7-C , 21-H ) :   0.9703 B(  8-C , 15-C ) :   1.4014 
B(  9-C , 14-C ) :   1.3893 B(  9-C , 22-H ) :   1.0010 B( 10-C , 14-C ) :   1.3592 
B( 11-C , 16-C ) :   0.9501 B( 11-C , 23-H ) :   0.9665 B( 11-C , 24-H ) :   0.9578 
B( 12-C , 17-C ) :   0.9543 B( 12-C , 25-H ) :   0.9582 B( 12-C , 26-H ) :   0.9653 
B( 13-C , 15-C ) :   1.4197 B( 13-C , 27-H ) :   0.9840 B( 14-C , 28-H ) :   0.9983 
B( 15-C , 29-H ) :   0.9938 B( 16-C , 18-C ) :   1.8921 B( 16-C , 30-H ) :   0.9560 
B( 17-C , 19-C ) :   1.9156 B( 17-C , 31-H ) :   0.9541 B( 18-C , 34-H ) :   0.9656 
B( 18-C , 35-H ) :   0.9588 B( 19-C , 36-H ) :   0.9668 B( 19-C , 37-H ) :   0.9616 
B( 38-H , 42-C ) :   0.9671 B( 39-H , 41-C ) :   0.9406 B( 40-O , 41-C ) :   0.8989 
B( 40-O , 43-C ) :   1.1931 B( 41-C , 42-C ) :   0.9883 B( 41-C , 47-H ) :   0.9494 
B( 42-C , 45-O ) :   0.9849 B( 42-C , 46-F ) :   1.0239 B( 43-C , 44-O ) :   2.0020 
B( 43-C , 45-O ) :   1.1012 

-------
TIMINGS
-------

Total SCF time: 0 days 0 hours 0 min 55 sec 

Total time                  ....      55.980 sec
Sum of individual times     ....      56.072 sec  (100.2%)

SCF preparation             ....       1.402 sec  (  2.5%)
Fock matrix formation       ....      48.595 sec  ( 86.8%)
  Startup                   ....       0.162 sec  (  0.3% of F)
  Split-RI-J                ....       4.733 sec  (  9.7% of F)
  Chain of spheres X        ....      32.067 sec  ( 66.0% of F)
  XC integration            ....       4.422 sec  (  9.1% of F)
    XC Preparation          ....       0.000 sec  (  0.0% of XC)
    Basis function eval.    ....       0.961 sec  ( 21.7% of XC)
    Density eval.           ....       1.212 sec  ( 27.4% of XC)
    XC-Functional eval.     ....       0.067 sec  (  1.5% of XC)
    XC-Potential eval.      ....       1.335 sec  ( 30.2% of XC)
  CPCM terms                ....       6.569 sec  ( 13.5% of F)
Diagonalization             ....       0.000 sec  (  0.0%)
Density matrix formation    ....       0.544 sec  (  1.0%)
Total Energy calculation    ....       0.310 sec  (  0.6%)
Population analysis         ....       0.236 sec  (  0.4%)
Orbital Transformation      ....       0.629 sec  (  1.1%)
Orbital Orthonormalization  ....       0.000 sec  (  0.0%)
DIIS solution               ....       2.670 sec  (  4.8%)
SOSCF solution              ....       1.686 sec  (  3.0%)
Finished LeanSCF after  56.3 sec

Maximum memory used throughout the entire LEANSCF-calculation: 159.5 MB
--------------------------------------------------------------------------
WARNING: There was an error initializing an OpenFabrics device.

  Local host:   ga00
  Local device: mlx5_0
--------------------------------------------------------------------------


           ************************************************************
           *        Program running with 25 parallel MPI-processes    *
           *              working on a common directory               *
           ************************************************************

------------------------------------------------------------------------------
                         ORCA PROPERTY INTEGRAL CALCULATIONS
------------------------------------------------------------------------------

GBWName                                   ... honokiol2-opt_FEC.gbw
Number of atoms                           ...     48
Number of basis functions                 ...    963
Max core memory                           ...   5000 MB

Dipole integrals                          ... YES
Quadrupole integrals                      ...  NO
Linear momentum integrals                 ...  NO
Angular momentum integrals                ...  NO
Higher moments length integrals           ...  NO
Higher moments velocity integrals         ...  NO
Kinetic energy integrals                  ...  NO
GIAO right hand sides                     ...  NO
GIAO dipole derivative integrals          ...  NO
SOC integrals                             ...  NO
EPR diamagnetic integrals (GIAO)          ...  NO
EPR gauge integrals                       ...  NO
Field gradient integrals                  ...  NO (   0 nuclei)
Spin-dipole/Fermi contact integrals       ...  NO (   0 nuclei)
Contact density integrals                 ...  NO (   0 nuclei)
Nucleus-orbit integrals                   ...  NO (   0 nuclei)
Geometric perturbations                   ... YES (  48 nuclei)

Choice of electric origin   ... Center of mass
Position of electric origin ... ( -1.7050,  0.3662,  2.0819) 
Choice of magnetic origin   ... GIAO
Position of magnetic origin ... (  0.0000,  0.0000,  0.0000) 

Calculating integrals                     ... Electric Dipole (Length)     done (  0.1 sec)
Calculating integrals                     ... Geometrical perturbation right hand sides

-----------------------
GEOMETRIC PERTURBATIONS (48 nuclei)
-----------------------

MaxCore                            ...   5000 MB
Number of batches                  ...      2

BATCH   0: Atoms    0 -   40 (123 perturbations)
   => H(core) and overlap derivative integrals     ... [ga00:3442407] 24 more processes have sent help message help-mpi-btl-openib.txt / error in device init
[ga00:3442407] Set MCA parameter "orte_base_help_aggregate" to 0 to see all help / error messages
done (     4.1 sec)
   => Making and storing internal U-coefficients   ... done (     0.2 sec)
   => RI-J derivative integrals                    ... done (    18.9 sec)
   => RI-J response operators                      ... done (     4.9 sec)
   => Chain of spheres derivative integrals        ... done (    27.9 sec)
   => Chain of spheres response operator           ... 