[Molden Format]
[Title]
 Molden file created by orca_2mkl for BaseName=EC

[Atoms] AU
O    1   8          0.0380776692         2.0945305109         0.0618868655 
O    2   8          0.0376162295        -2.0946298126        -0.0617500781 
O    3   8          3.7358523117        -0.0004419311        -0.0005576029 
C    4   6         -2.6007814582         1.4056904114         0.3312451326 
C    5   6         -2.6012466071        -1.4051784865        -0.3301744520 
C    6   6          1.4655090194        -0.0002203947        -0.0002102624 
H    7   1         -3.7053939717         2.5527901154        -0.9642015195 
H    8   1         -3.1609183043         1.7750046487         2.2767824784 
H    9   1         -3.7055790700        -2.5520355783         0.9657168570 
H   10   1         -3.1620763145        -1.7743756476        -2.2755248842 
[GTO]
  1 0
s   6 1.0 
    27032.3826310000         0.8598581479
     4052.3871392000         1.6055305368
      922.3272271000         2.7458778516
      261.2407098900         4.2987674426
       85.3546413510         5.8797663284
       31.0350352450         6.3163983216
s   2 1.0 
       12.2608607280         2.9812147522
        4.9987076005         0.9419559635
s   1 1.0 
        1.1703108158         0.8019291610
s   1 1.0 
        0.4647474099         0.4011648062
s   1 1.0 
        0.1850453636         0.2010799406
p   4 1.0 
       63.2749548010         3.0572017144
       14.6270493790         3.3844839414
        4.4501223456         2.9474262132
        1.5275799647         1.7118271494
p   1 1.0 
        0.5293511794         0.6436057926
p   1 1.0 
        0.1747842127         0.1610897254
d   1 1.0 
        2.3140000000        12.3767310624
d   1 1.0 
        0.6450000000         1.3234257612
f   1 1.0 
        1.4280000000        12.7097950062

  2 0
s   6 1.0 
    27032.3826310000         0.8598581479
     4052.3871392000         1.6055305368
      922.3272271000         2.7458778516
      261.2407098900         4.2987674426
       85.3546413510         5.8797663284
       31.0350352450         6.3163983216
s   2 1.0 
       12.2608607280         2.9812147522
        4.9987076005         0.9419559635
s   1 1.0 
        1.1703108158         0.8019291610
s   1 1.0 
        0.4647474099         0.4011648062
s   1 1.0 
        0.1850453636         0.2010799406
p   4 1.0 
       63.2749548010         3.0572017144
       14.6270493790         3.3844839414
        4.4501223456         2.9474262132
        1.5275799647         1.7118271494
p   1 1.0 
        0.5293511794         0.6436057926
p   1 1.0 
        0.1747842127         0.1610897254
d   1 1.0 
        2.3140000000        12.3767310624
d   1 1.0 
        0.6450000000         1.3234257612
f   1 1.0 
        1.4280000000        12.7097950062

  3 0
s   6 1.0 
    27032.3826310000         0.8598581479
     4052.3871392000         1.6055305368
      922.3272271000         2.7458778516
      261.2407098900         4.2987674426
       85.3546413510         5.8797663284
       31.0350352450         6.3163983216
s   2 1.0 
       12.2608607280         2.9812147522
        4.9987076005         0.9419559635
s   1 1.0 
        1.1703108158         0.8019291610
s   1 1.0 
        0.4647474099         0.4011648062
s   1 1.0 
        0.1850453636         0.2010799406
p   4 1.0 
       63.2749548010         3.0572017144
       14.6270493790         3.3844839414
        4.4501223456         2.9474262132
        1.5275799647         1.7118271494
p   1 1.0 
        0.5293511794         0.6436057926
p   1 1.0 
        0.1747842127         0.1610897254
d   1 1.0 
        2.3140000000        12.3767310624
d   1 1.0 
        0.6450000000         1.3234257612
f   1 1.0 
        1.4280000000        12.7097950062

  4 0
s   6 1.0 
    13575.3496820000         0.5435905310
     2035.2333680000         1.0145543947
      463.2256235900         1.7315731970
      131.2001959800         2.6910376290
       42.8530158910         3.6044547126
       15.5841857660         3.7025556986
s   2 1.0 
        6.2067138508         1.8383540830
        2.5764896527         0.5447575605
s   1 1.0 
        0.5769633942         0.4718145038
s   1 1.0 
        0.2297283136         0.2364944676
s   1 1.0 
        0.0951644400         0.1221141848
p   4 1.0 
       34.6972322440         1.3596651507
        7.9582622826         1.4512589486
        2.3780826883         1.2709231419
        0.8143320818         0.8025721189
p   1 1.0 
        0.2888754725         0.3018758868
p   1 1.0 
        0.1005682367         0.0807265016
d   1 1.0 
        1.0970000000         3.3522135855
d   1 1.0 
        0.3180000000         0.3838994974
f   1 1.0 
        0.7610000000         3.0840084332

  5 0
s   6 1.0 
    13575.3496820000         0.5435905310
     2035.2333680000         1.0145543947
      463.2256235900         1.7315731970
      131.2001959800         2.6910376290
       42.8530158910         3.6044547126
       15.5841857660         3.7025556986
s   2 1.0 
        6.2067138508         1.8383540830
        2.5764896527         0.5447575605
s   1 1.0 
        0.5769633942         0.4718145038
s   1 1.0 
        0.2297283136         0.2364944676
s   1 1.0 
        0.0951644400         0.1221141848
p   4 1.0 
       34.6972322440         1.3596651507
        7.9582622826         1.4512589486
        2.3780826883         1.2709231419
        0.8143320818         0.8025721189
p   1 1.0 
        0.2888754725         0.3018758868
p   1 1.0 
        0.1005682367         0.0807265016
d   1 1.0 
        1.0970000000         3.3522135855
d   1 1.0 
        0.3180000000         0.3838994974
f   1 1.0 
        0.7610000000         3.0840084332

  6 0
s   6 1.0 
    13575.3496820000         0.5435905310
     2035.2333680000         1.0145543947
      463.2256235900         1.7315731970
      131.2001959800         2.6910376290
       42.8530158910         3.6044547126
       15.5841857660         3.7025556986
s   2 1.0 
        6.2067138508         1.8383540830
        2.5764896527         0.5447575605
s   1 1.0 
        0.5769633942         0.4718145038
s   1 1.0 
        0.2297283136         0.2364944676
s   1 1.0 
        0.0951644400         0.1221141848
p   4 1.0 
       34.6972322440         1.3596651507
        7.9582622826         1.4512589486
        2.3780826883         1.2709231419
        0.8143320818         0.8025721189
p   1 1.0 
        0.2888754725         0.3018758868
p   1 1.0 
        0.1005682367         0.0807265016
d   1 1.0 
        1.0970000000         3.3522135855
d   1 1.0 
        0.3180000000         0.3838994974
f   1 1.0 
        0.7610000000         3.0840084332

  7 0
s   3 1.0 
       34.0613410000         0.2556299169
        5.1235746000         0.4613599649
        1.1646626000         0.6811214941
s   1 1.0 
        0.3272304100         0.3083545312
s   1 1.0 
        0.1030724100         0.1296483265
p   1 1.0 
        0.8000000000         1.0784563492

  8 0
s   3 1.0 
       34.0613410000         0.2556299169
        5.1235746000         0.4613599649
        1.1646626000         0.6811214941
s   1 1.0 
        0.3272304100         0.3083545312
s   1 1.0 
        0.1030724100         0.1296483265
p   1 1.0 
        0.8000000000         1.0784563492

  9 0
s   3 1.0 
       34.0613410000         0.2556299169
        5.1235746000         0.4613599649
        1.1646626000         0.6811214941
s   1 1.0 
        0.3272304100         0.3083545312
s   1 1.0 
        0.1030724100         0.1296483265
p   1 1.0 
        0.8000000000         1.0784563492

 10 0
s   3 1.0 
       34.0613410000         0.2556299169
        5.1235746000         0.4613599649
        1.1646626000         0.6811214941
s   1 1.0 
        0.3272304100         0.3083545312
s   1 1.0 
        0.1030724100         0.1296483265
p   1 1.0 
        0.8000000000         1.0784563492

[5D]
[7F]
[9G]
[MO]
 Sym=     1a
 Ene= -1.91889353602281E+01
 Spin= Alpha
 Occup= 2.000000
  1      -0.131260430645
  2      -0.192834927589
  3      -0.011970013919
  4       0.012490571145
  5      -0.002414888791
  6       0.000237727051
  7       0.000637276309
  8      -0.000054057620
  9      -0.000741516895
 10      -0.002549704609
 11       0.000186807929
 12      -0.000769787208
 13      -0.000520091558
 14       0.000002495485
 15       0.000036136351
 16       0.000035219641
 17       0.000014030115
 18      -0.000053705681
 19       0.000019850211
 20      -0.000466218008
 21      -0.000202325847
 22      -0.000048573554
 23       0.000334260436
 24      -0.000141732185
 25      -0.000025270457
 26       0.000055335138
 27      -0.000004087236
 28       0.000013942734
 29       0.000030565824
 30       0.000144931020
 31       0.000152602064
 32       0.414845766113
 33       0.609597955740
 34       0.036033721815
 35      -0.031327394518
 36       0.006695557118
 37      -0.000619419878
 38       0.002000492123
 39      -0.000083871271
 40       0.001498451704
 41      -0.005867856171
 42       0.000225589450
 43      -0.000129128465
 44      -0.000727387021
 45       0.000080211403
 46      -0.000246458816
 47       0.000053296542
 48      -0.000001492269
 49       0.000111206631
 50       0.000105548555
 51       0.001547290416
 52      -0.000307384019
 53      -0.000002505250
 54      -0.000663361406
 55      -0.000543142541
 56      -0.000030453100
 57      -0.000083539370
 58       0.000129427770
 59       0.000042182014
 60      -0.000036618807
 61      -0.000297991765
 62       0.000217281293
 63      -0.000010415237
 64      -0.000016137975
 65      -0.000114970811
 66       0.001250538436
 67      -0.000196933248
 68      -0.000037504993
 69       0.000008831237
 70       0.000007369102
 71      -0.000397316628
 72      -0.000347935193
 73      -0.000047139899
 74      -0.000055824987
 75      -0.000826902690
 76       0.000147383994
 77      -0.000062461692
 78       0.000008652267
 79       0.000003227511
 80      -0.000001934877
 81      -0.000017795788
 82       0.000175567531
 83      -0.000009165673
 84      -0.000012334930
 85       0.000094129302
 86       0.000135262273
 87       0.000006479243
 88      -0.000037966463
 89      -0.000032789019
 90      -0.000009486892
 91       0.000003016279
 92       0.000021305162
 93      -0.000037216766
 94       0.000004437765
 95      -0.000025285745
 96       0.001744472261
 97      -0.005446154830
 98       0.009168475747
 99       0.000417391643
100      -0.000104411158
101      -0.000053720198
102      -0.003859897194
103       0.000813465391
104       0.000763915945
105       0.000270209810
106      -0.002135183231
107      -0.000043962300
108       0.000032992971
109       0.000037152731
110      -0.000017314919
111      -0.000029236546
112      -0.000144164909
113       0.001872037502
114       0.000214039704
115      -0.000107035539
116      -0.001119727474
117       0.000263364918
118      -0.000069766866
119       0.000270072823
120      -0.000043851262
121       0.000073409899
122      -0.000000492524
123       0.000088843527
124       0.000166926006
125       0.000013042786
126      -0.000062281488
127      -0.002494883898
128       0.008962177018
129      -0.012915771729
130      -0.000411901710
131      -0.000057402942
132      -0.000074074057
133       0.006208582358
134       0.000155730500
135       0.001059819445
136      -0.000413110469
137      -0.001390553278
138      -0.000476527062
139      -0.000188495830
140       0.000042591619
141      -0.000023876915
142       0.000283288896
143      -0.000272302250
144      -0.002341461056
145       0.000799636793
146       0.000316645366
147       0.002289452925
148      -0.000532467937
149      -0.000161950067
150      -0.000537050764
151       0.000087696447
152       0.000134723475
153      -0.000041174509
154      -0.000396091316
155       0.000406057602
156       0.000021683598
157      -0.000123005746
158      -0.000420591316
159       0.003347641678
160      -0.000824442683
161      -0.000046609094
162      -0.000114146168
163      -0.000032843745
164      -0.002882456674
165      -0.007357933986
166      -0.000120995923
167       0.000673040071
168       0.002225030742
169      -0.000267749648
170      -0.000209066226
171       0.000040728044
172       0.000008230861
173      -0.000099710786
174       0.000539296368
175      -0.000667820737
176       0.000024909254
177       0.000076625035
178      -0.001134740638
179       0.004740678072
180       0.000000767664
181       0.000220932188
182       0.000626623516
183       0.000047965919
184      -0.000009266385
185      -0.000038399635
186       0.000087561694
187      -0.000001626238
188      -0.000484557920
189      -0.000622748575
190      -0.000131528688
191       0.000079296414
192       0.000112561720
193      -0.000083621504
194      -0.001233486007
195      -0.000892347345
196      -0.000063171167
197       0.000063616035
198       0.000082045802
199       0.000018560602
200       0.000986131057
201       0.001839369792
202       0.000024086597
203       0.000094796958
204       0.000097125726
205       0.000033810254
206       0.001147989961
207       0.001839133707
208       0.000038136608
209       0.000128661401
210      -0.000010588686
 Sym=     1a
 Ene= -1.91889054384727E+01
 Spin= Alpha
 Occup= 2.000000
  1       0.414842486820
  2       0.609625894219
  3       0.035633715811
  4      -0.029514473032
  5       0.006486198301
  6      -0.000590726766
  7      -0.001997269027
  8       0.000064733831
  9       0.001312570030
 10       0.005380164005
 11      -0.000144990030
 12      -0.000698795733
 13       0.000523733689
 14      -0.000096260588
 15      -0.000275879350
 16      -0.000040592012
 17       0.000008089976
 18       0.000098064658
 19      -0.000115092245
 20       0.001563593410
 21       0.000234979047
 22      -0.000037575026
 23      -0.000575494264
 24       0.000564601523
 25       0.000019542655
 26      -0.000063195696
 27      -0.000161057943
 28      -0.000042004049
 29      -0.000023463939
 30      -0.000262547032
 31      -0.000158052965
 32       0.131250071981
 33       0.192923298273
 34       0.010705311318
 35      -0.006759529158
 36       0.001755369649
 37      -0.000145144956
 38       0.000627588813
 39       0.000007024337
 40       0.000148019742
 41      -0.001009122200
 42      -0.000069479285
 43      -0.001031441837
 44       0.000124300833
 45       0.000053701175
 46      -0.000129204098
 47      -0.000005649369
 48       0.000016055728
 49       0.000012378501
 50       0.000049890768
 51       0.000518057766
 52       0.000030786872
 53      -0.000061237729
 54      -0.000057561299
 55      -0.000208792707
 56       0.000009419827
 57       0.000008936195
 58       0.000095979352
 59       0.000012748484
 60       0.000011540543
 61      -0.000032490403
 62      -0.000033895360
 63      -0.000020081940
 64      -0.000031109201
 65      -0.000221434571
 66       0.002408152656
 67      -0.000379269229
 68      -0.000072194802
 69      -0.000004564926
 70      -0.000003818941
 71      -0.000765040134
 72       0.000180682969
 73       0.000024626513
 74      -0.000107262428
 75       0.000429361834
 76      -0.000076483690
 77      -0.000120338559
 78      -0.000004512567
 79       0.000006286324
 80      -0.000003749127
 81       0.000009226243
 82       0.000338064357
 83       0.000004827207
 84      -0.000023809014
 85       0.000181227355
 86      -0.000070205246
 87      -0.000003319249
 88      -0.000072910903
 89       0.000017093621
 90       0.000004917339
 91       0.000005848820
 92       0.000040953058
 93       0.000019335928
 94       0.000019067730
 95      -0.000093965002
 96      -0.001823231709
 97       0.007127311603
 98      -0.009342401954
 99      -0.000209902030
100      -0.000003126319
101       0.000052951708
102       0.004876062241
103       0.000380202082
104      -0.000761363064
105      -0.000314167354
106       0.000198680175
107       0.000551741254
108      -0.000207257232
109      -0.000026230315
110      -0.000041482187
111       0.000325962117
112       0.000231382748
113      -0.001545584649
114      -0.000829718818
115       0.000311738983
116       0.002011702634
117       0.000835114658
118       0.000149480832
119      -0.000466383587
120      -0.000137867825
121      -0.000113683842
122      -0.000050880000
123      -0.000422018143
124      -0.000378655617
125       0.000014600033
126      -0.000074733163
127       0.000378072697
128      -0.000354393318
129       0.002125839428
130       0.000220704826
131       0.000087164574
132       0.000013398612
133      -0.000353273472
134      -0.000884072143
135      -0.000186583532
136       0.000040643257
137       0.001632367171
138      -0.000281432705
139      -0.000092217127
140      -0.000015443442
141      -0.000038023730
142       0.000163563324
143      -0.000015223684
144       0.000642286158
145       0.000302415947
146       0.000091795903
147       0.000240817953
148      -0.000695807016
149      -0.000028906050
150      -0.000047378816
151       0.000115137974
152       0.000005196957
153      -0.000029536792
154      -0.000170077057
155       0.000081394042
156       0.000041753425
157      -0.000236841473
158      -0.000810232687
159       0.006446680316
160      -0.001587295018
161      -0.000089674381
162       0.000059241188
163       0.000017080795
164      -0.005548637849
165       0.003821698341
166       0.000064099063
167       0.001295326560
168      -0.001155508915
169       0.000138740395
170      -0.000402545252
171      -0.000021262699
172       0.000016137587
173      -0.000192336037
174      -0.000279980210
175      -0.001285963068
176      -0.000013035202
177       0.000149799085
178      -0.002187487909
179      -0.002461097528
180      -0.000000639303
181       0.000425409162
182      -0.000325490875
183      -0.000024798763
184      -0.000018356700
185      -0.000074115070
186      -0.000045478408
187       0.000021530047
188       0.000864766531
189       0.001810736107
190      -0.000063138809
191      -0.000060123122
192      -0.000039602489
193      -0.000017467982
194       0.000536257958
195       0.001620836831
196       0.000002209392
197      -0.000112564956
198       0.000070576881
199       0.000011003508
200       0.000100458367
201       0.000532382075
202      -0.000144166130
203      -0.000030334189
204      -0.000069180817
205      -0.000078471048
206      -0.000700698353
207       0.000202470759
208      -0.000050432515
209       0.000012692545
210      -0.000107732872
 Sym=     1a
 Ene= -1.91233143970563E+01
 Spin= Alpha
 Occup= 2.000000
  1       0.000016300111
  2       0.000028823392
  3      -0.000310831147
  4       0.001928575039
  5      -0.000353275716
  6      -0.000022676949
  7      -0.000013539511
  8      -0.000003269839
  9       0.000748488612
 10      -0.000540795994
 11       0.000004370999
 12       0.000631530891
 13       0.000155018314
 14       0.000217214191
 15      -0.000082214596
 16       0.000007684161
 17       0.000013744239
 18      -0.000020108203
 19       0.000001603866
 20       0.000151791327
 21      -0.000044095789
 22      -0.000055603192
 23       0.000179841061
 24      -0.000285810377
 25      -0.000010325128
 26       0.000052133552
 27      -0.000061416041
 28      -0.000002511745
 29       0.000002090439
 30       0.000065205954
 31       0.000050200211
 32       0.000016285976
 33       0.000028780919
 34      -0.000310597253
 35       0.001928043765
 36      -0.000353520606
 37      -0.000022725106
 38       0.000013561550
 39       0.000003286734
 40       0.000749023248
 41       0.000540455605
 42      -0.000004671517
 43       0.000631429465
 44      -0.000155273063
 45      -0.000217433664
 46      -0.000082198149
 47      -0.000007723215
 48       0.000013808026
 49      -0.000020071945
 50      -0.000001575835
 51       0.000151878425
 52       0.000044054125
 53      -0.000055767319
 54       0.000179871330
 55       0.000285723051
 56       0.000010278366
 57       0.000052128951
 58       0.000061405129
 59       0.000002563937
 60       0.000002099724
 61       0.000065124296
 62      -0.000050260175
 63       0.435079183048
 64       0.639488553992
 65       0.036718503407
 66      -0.032134896031
 67       0.010960422198
 68      -0.002324729919
 69       0.000000221076
 70       0.000000341656
 71       0.007134674075
 72      -0.000000673453
 73      -0.000001069068
 74      -0.000083978815
 75       0.000000047738
 76       0.000000005767
 77      -0.000123250807
 78      -0.000000080286
 79      -0.000005019779
 80       0.000328911274
 81      -0.000000061230
 82       0.000706341540
 83       0.000000416363
 84       0.000013384662
 85      -0.001528573524
 86       0.000000276393
 87       0.000000043423
 88      -0.000111733534
 89       0.000000009801
 90      -0.000000053316
 91       0.000000605798
 92      -0.000128144210
 93       0.000000034037
 94       0.000005395773
 95      -0.000027778081
 96       0.000324968172
 97      -0.000322450220
 98      -0.001608396743
 99       0.000142304033
100      -0.000031240095
101      -0.000008092095
102      -0.000444991789
103       0.000145968280
104      -0.000030422516
105      -0.000928695769
106       0.000514162930
107      -0.000497532962
108      -0.000015574634
109      -0.000008803121
110       0.000005627433
111       0.000048935613
112      -0.000057665487
113       0.000110143344
114      -0.000003647409
115      -0.000060921024
116      -0.000318519590
117       0.000228455618
118      -0.000009997882
119       0.000055484783
120      -0.000010888461
121      -0.000004203444
122       0.000000442033
123       0.000033845896
124      -0.000027853725
125       0.000005400718
126      -0.000027796204
127       0.000323675232
128      -0.000316386978
129      -0.001610299751
130       0.000142200296
131       0.000031034372
132       0.000008029863
133      -0.000444468181
134      -0.000142655970
135       0.000030963619
136      -0.000928705381
137      -0.000513932603
138       0.000498167918
139      -0.000015609550
140       0.000008769026
141       0.000005639924
142       0.000048889790
143       0.000057638670
144       0.000109534859
145       0.000004103578
146      -0.000060163577
147      -0.000319621461
148      -0.000228312827
149       0.000009696457
150       0.000055295442
151       0.000010695048
152       0.000004100602
153       0.000000422232
154       0.000033951153
155       0.000028260444
156       0.000036767064
157      -0.000231637627
158       0.000750758889
159       0.004897325959
160      -0.000294188687
161       0.000786085820
162      -0.000000078190
163      -0.000000118764
164       0.010040780869
165      -0.000001025181
166      -0.000001554565
167      -0.007144121455
168       0.000000611412
169       0.000001113616
170      -0.000142936193
171      -0.000000067180
172       0.000009232818
173       0.000236569382
174      -0.000000037718
175      -0.001820937547
176      -0.000001417041
177      -0.000143328274
178       0.005760868013
179      -0.000001194617
180       0.000000119573
181      -0.000316246172
182       0.000000029690
183       0.000000010820
184       0.000038149017
185       0.000307449851
186      -0.000000088529
187      -0.000013327080
188       0.000088204689
189      -0.000374092256
190      -0.000018455736
191      -0.000026827970
192      -0.000002754240
193      -0.000015931749
194       0.000223895109
195       0.000225518012
196       0.000001761483
197      -0.000004148899
198      -0.000021980890
199      -0.000013330159
200       0.000088327344
201      -0.000373934349
202      -0.000018457959
203       0.000026773441
204       0.000002796257
205      -0.000016045712
206       0.000223408284
207       0.000226170749
208       0.000001752551
209       0.000004100255
210       0.000021734857
 Sym=     1a
 Ene= -1.03546090990120E+01
 Spin= Alpha
 Occup= 2.000000
  1       0.000025211249
  2       0.000182426447
  3      -0.002074581765
  4       0.005026841307
  5      -0.004344173103
  6      -0.000434740908
  7       0.000454823988
  8       0.000011615435
  9       0.002539614178
 10      -0.002925099815
 11      -0.000065407792
 12       0.000741600825
 13       0.002325130230
 14      -0.000510227628
 15       0.000019702194
 16      -0.000016918101
 17      -0.000012853407
 18       0.000084025282
 19       0.000192521561
 20      -0.000989130274
 21       0.000003974508
 22       0.000118832464
 23      -0.000813107444
 24      -0.002366977437
 25       0.000030149725
 26      -0.000304948576
 27       0.000358478364
 28       0.000001351252
 29       0.000049771507
 30       0.000656814196
 31       0.000202252862
 32       0.000025212365
 33       0.000182441941
 34      -0.002074783941
 35       0.005027718162
 36      -0.004343620117
 37      -0.000434864861
 38      -0.000454760689
 39      -0.000011449443
 40       0.002540608592
 41       0.002925063280
 42       0.000064447273
 43       0.000741317283
 44      -0.002325073931
 45       0.000509933036
 46       0.000019683526
 47       0.000016895629
 48      -0.000012787379
 49       0.000083948761
 50      -0.000192552077
 51      -0.000989210794
 52      -0.000004298706
 53       0.000117945217
 54      -0.000812131698
 55       0.002367545488
 56      -0.000029866224
 57      -0.000305062146
 58      -0.000358442876
 59      -0.000001205658
 60       0.000049440917
 61       0.000656706234
 62      -0.000202722466
 63       0.000083812211
 64       0.000293274806
 65      -0.003103279185
 66       0.011856035694
 67       0.000764640090
 68       0.000564230469
 69      -0.000000055254
 70      -0.000000088552
 71      -0.008118623928
 72       0.000000785866
 73       0.000001249120
 74      -0.000059463242
 75       0.000000036402
 76       0.000000003287
 77      -0.000020584478
 78      -0.000000009312
 79       0.000002801222
 80       0.000033086748
 81      -0.000000002734
 82      -0.001561716069
 83      -0.000000861854
 84      -0.000018799627
 85       0.002910445913
 86      -0.000000555143
 87      -0.000000111729
 88       0.000303579922
 89      -0.000000029227
 90       0.000000190883
 91       0.000011630678
 92       0.000654696207
 93      -0.000000186003
 94       0.000049630206
 95      -0.000045322497
 96       0.000000264347
 97       0.002695677977
 98       0.000958497971
 99       0.000117940505
100      -0.000158850229
101      -0.000031528703
102       0.001136569585
103       0.000440018690
104       0.000249894672
105       0.001096614522
106      -0.000782455825
107       0.001495735533
108      -0.000146591056
109      -0.000020272975
110      -0.000005568927
111       0.000058708104
112      -0.000064874809
113       0.000741073935
114      -0.000252269914
115       0.000371124264
116       0.000653640757
117       0.000170602149
118       0.000116143009
119       0.000038855755
120       0.000028034994
121       0.000013537838
122      -0.000002213183
123      -0.000112287880
124      -0.000026047027
125       0.000049627994
126      -0.000045347138
127       0.000000021159
128       0.002696704667
129       0.000957449473
130       0.000117977209
131       0.000158812813
132       0.000031482881
133       0.001135982184
134      -0.000440573201
135      -0.000249860859
136       0.001096375945
137       0.000782104497
138      -0.001496324474
139      -0.000146601718
140       0.000020119033
141      -0.000005631178
142       0.000058737373
143       0.000064882446
144       0.000740987949
145       0.000252382418
146       0.000370914939
147       0.000653560817
148      -0.000170627368
149      -0.000116227491
150       0.000038697644
151      -0.000028106254
152      -0.000013584827
153      -0.000002106929
154      -0.000112305206
155       0.000026169412
156      -0.467018792964
157      -0.607922881626
158      -0.036819922980
159       0.009316293340
160      -0.004914233387
161      -0.000007244186
162       0.000000064691
163      -0.000000055481
164      -0.007702599829
165       0.000001402947
166       0.000001131990
167       0.001832611632
168      -0.000000214895
169      -0.000000220414
170       0.002575813415
171       0.000000914607
172      -0.000138717146
173      -0.001148156457
174       0.000000076683
175       0.002804435483
176       0.000001044629
177       0.000106039081
178      -0.001948132258
179       0.000000074615
180      -0.000000072882
181       0.000355715233
182      -0.000000112359
183       0.000000749240
184       0.000079901863
185       0.003189136324
186      -0.000001036302
187      -0.000001740848
188       0.000080412885
189       0.000989602227
190      -0.000045757493
191       0.000152495390
192       0.000083936006
193      -0.000075576493
194      -0.001416135382
195      -0.000287761101
196      -0.000150386702
197       0.000063066782
198       0.000209355146
199      -0.000001830045
200       0.000079470682
201       0.000990084716
202      -0.000046093812
203      -0.000152691974
204      -0.000083711218
205      -0.000075598113
206      -0.001416188475
207      -0.000287689181
208      -0.000150460997
209      -0.000063049264
210      -0.000209335336
 Sym=     1a
 Ene= -1.02414705845156E+01
 Spin= Alpha
 Occup= 2.000000
  1      -0.000007147662
  2      -0.000096403171
  3       0.000911454354
  4      -0.001890024022
  5       0.003503072528
  6      -0.000323629305
  7      -0.000139316319
  8       0.000009583540
  9       0.000864632870
 10       0.000887606879
 11       0.000059851043
 12       0.000077931150
 13      -0.002049306165
 14      -0.000321279082
 15      -0.000020642554
 16      -0.000014029246
 17      -0.000022396623
 18       0.000107110627
 19       0.000097600335
 20       0.000310617494
 21       0.000074403450
 22       0.000091547441
 23      -0.000447305263
 24      -0.000551255987
 25       0.000052395149
 26      -0.000204811335
 27      -0.000072961970
 28      -0.000041401667
 29      -0.000043796612
 30      -0.000207507701