
                                 *****************
                                 * O   R   C   A *
                                 *****************

                                            #,                                       
                                            ###                                      
                                            ####                                     
                                            #####                                    
                                            ######                                   
                                           ########,                                 
                                     ,,################,,,,,                         
                               ,,#################################,,                 
                          ,,##########################################,,             
                       ,#########################################, ''#####,          
                    ,#############################################,,   '####,        
                  ,##################################################,,,,####,       
                ,###########''''           ''''###############################       
              ,#####''   ,,,,##########,,,,          '''####'''          '####       
            ,##' ,,,,###########################,,,                        '##       
           ' ,,###''''                  '''############,,,                           
         ,,##''                                '''############,,,,        ,,,,,,###''
      ,#''                                            '''#######################'''  
     '                                                          ''''####''''         
             ,#######,   #######,   ,#######,      ##                                
            ,#'     '#,  ##    ##  ,#'     '#,    #''#        ,####,   ,####,        
            ##       ##  ##   ,#'  ##            #'  '#       #'       #'  '#        
            ##       ##  #######   ##           ,######,      #####,   #    #        
            '#,     ,#'  ##    ##  '#,     ,#' ,#      #,     #,   #   #,  ,#        
             '#######'   ##     ##  '#######'  #'      '#     '####' # '####'        



                #########################################################
                #                        -***-                          #
                #          Department of theory and spectroscopy        #
                #                                                       #
                #                      Frank Neese                      #
                #                                                       #
                #     Directorship, Architecture, Infrastructure        #
                #                    SHARK, DRIVERS                     #
                #        Core code/Algorithms in most modules           #
                #                                                       #
                #        Max Planck Institute fuer Kohlenforschung      #
                #                Kaiser Wilhelm Platz 1                 #
                #                 D-45470 Muelheim/Ruhr                 #
                #                      Germany                          #
                #                                                       #
                #                  All rights reserved                  #
                #                        -***-                          #
                #########################################################


                         Program Version 6.0.1  -  RELEASE   -


 With contributions from (in alphabetic order):
[Max-Planck-Institut fuer Kohlenforschung]                               
  Daniel Aravena         : Magnetic Suceptibility                        
  Michael Atanasov       : Ab Initio Ligand Field Theory (pilot matlab implementation)
  Alexander A. Auer      : GIAO ZORA, VPT2 properties, NMR spectrum      
  Ute Becker             : All parallelization in ORCA, NUMFREQ, NUMCALC 
  Giovanni Bistoni       : ED, misc. LED, open-shell LED, HFLD           
  Martin Brehm           : Molecular dynamics                            
  Dmytro Bykov           : pre 5.0 version of the SCF Hessian            
  Marcos Casanova-Páez   : Triplet and SCS-CIS(D). UHF-(DLPNO)-IP/EA/STEOM-CCSD. UHF-CVS-IP/STEOM-CCSD   
  Vijay G. Chilkuri      : MRCI spin determinant printing, contributions to CSF-ICE 
  Pauline Colinet        : FMM embedding                                 
  Dipayan Datta          : RHF DLPNO-CCSD density                        
  Achintya Kumar Dutta   : EOM-CC, STEOM-CC                              
  Nicolas Foglia         : Exact transition moments, OPA infrastructure, MCD improvements    
  Dmitry Ganyushin       : Spin-Orbit,Spin-Spin,Magnetic field MRCI      
  Miquel Garcia-Rates    : C-PCM and meta-GGA Hessian, CCSD/C-PCM, Gaussian charge scheme 
  Tiago L. C. Gouveia    : GS-ROHF, GS-ROCIS                             
  Yang Guo               : DLPNO-NEVPT2, F12-NEVPT2, CIM, IAO-localization        
  Andreas Hansen         : Spin unrestricted coupled pair/coupled cluster methods 
  Ingolf Harden          : AUTO-CI MPn and infrastructure                
  Benjamin Helmich-Paris : MC-RPA, TRAH-(SCF,CASSCF), AVAS, COSX integrals, SCF dyn. polar. 
  Lee Huntington         : MR-EOM, pCC                                   
  Robert Izsak           : Overlap fitted RIJCOSX, COSX-SCS-MP3, EOM     
  Riya Kayal             : Wick's Theorem for AUTO-CI, AUTO-CI UHF-CCSDT 
  Emily Kempfer          : AUTO-CI, RHF CISDT and CCSDT                  
  Christian Kollmar      : KDIIS, OOCD, Brueckner-CCSD(T), CCSD density, CASPT2, CASPT2-K, improved NEVPT2 
  Axel Koslowski         : Symmetry handling                             
  Simone Kossmann        : meta-GGA functionals, TD-DFT gradient, OOMP2, (MP2 Hessian; deprecated post 5.0) 
  Lucas Lang             : DCDCAS                                        
  Marvin Lechner         : AUTO-CI (C++ implementation), FIC-MRCC        
  Spencer Leger          : CASSCF response                               
  Dagmar Lenk            : GEPOL surface, SMD, ORCA-2-JSON               
  Dimitrios Liakos       : Extrapolation schemes; Compound Job, initial MDCI parallelization 
  Dimitrios Manganas     : Further ROCIS development; embedding schemes. LFT, Crystal Embedding 
  Dimitrios Pantazis     : SARC Basis sets                               
  Anastasios Papadopoulos: AUTO-CI, single reference methods and gradients 
  Taras Petrenko         : pre 6.0 DFT Hessian and TD-DFT gradient, (ASA, deprecated), ECA, 1-Electron XAS/XES, NRVS 
  Peter Pinski           : DLPNO-MP2, DLPNO-MP2 Gradient                 
  Christoph Reimann      : Effective Core Potentials                     
  Marius Retegan         : Local ZFS, SOC                                
  Christoph Riplinger    : Optimizer, TS searches, QM/MM, DLPNO-CCSD(T), (RO)-DLPNO pert. Triples 
  Michael Roemelt        : Original ROCIS implementation                 
  Masaaki Saitow         : Open-shell DLPNO-CCSD energy and density      
  Barbara Sandhoefer     : DKH picture change effects                    
  Kantharuban Sivalingam : CASSCF convergence/infrastructure, NEVPT2 and variants, FIC-MRCI 
  Bernardo de Souza      : ESD, SOC TD-DFT                               
  Georgi L. Stoychev     : AutoAux, RI-MP2 NMR, DLPNO-MP2 response, X2C  
  Van Anh Tran           : RI-MP2 g-tensors                              
  Willem Van den Heuvel  : Paramagnetic NMR                              
  Zikuan Wang            : NOTCH, Electric field optimization            
  Frank Wennmohs         : Technical directorship and infrastructure     
  Hang Xu                : AUTO-CI-Response properties                   
                                                                         
[FACCTs GmbH]                                                            
  Markus Bursch, Miquel Garcia-Rates, Christoph Riplinger, Bernardo de Souza, Georgi L. Stoychev 
                                                                 
  APM, Basis sets (HGBS, AHGBS, def-TZVP (Ac-Lr), def2-XVPD (La-Lu)), CI-OPT, improved COSX, DLPNO-Multilevel,           
  DOCKER, DRACO, updates on ESD, GOAT, IRC, LR-CPCM, MBIS, meta-GGA TD-DFT gradient, ML-optimized integration grids, 
  MM, NACMEs, nearIR, NEB, NEB-TS, NL-DFT gradient (VV10), 2- and 3-layer-ONIOM, interface openCOSMO-RS, QMMM,   
  Crystal-QMMM, SF, symmetry and pop. for TD-DFT, r2SCAN hybrids, SOLVATOR                                   
                                                                         
[Other institutions]                                                     
  V. Asgeirsson          : NEB                                           
  Christoph Bannwarth    : sTDA-DFT, sTD-DFT, PBEh-3c, B97-3c, D3        
  Sebastian Ehlert       : rSCAN, r2SCAN, r2SCAN-3c, D4, dhf basis sets  
  Marvin Friede          : D4 for Fr, Ra, Ac-Lr                          
  Lars Goerigk           : TD-DFT with DH, B97 family of functionals     
  Stefan Grimme          : VdW corrections, initial TS optimization, DFT functionals, gCP, sTDA/sTD-DF 
  Waldemar Hujo          : DFT-NL                                        
  H. Jonsson             : NEB                                           
  Holger Kruse           : gCP                                           
  Marcel Mueller         : wB97X-3c, vDZP basis set                      
  Hagen Neugebauer       : wr2SCAN                                       
  Tobias Risthaus        : range-separated hybrid DFT                    
  Lukas Wittmann         : regularized MP2, r2SCAN double-hybrids, wr2SCAN        
                                                                         
We gratefully acknowledge several colleagues who have allowed us to      
interface, adapt or use parts of their codes:                            
  Ed Valeev, F. Pavosevic, A. Kumar             : LibInt (2-el integral package), F12 methods 
  Garnet Chan, S. Sharma, J. Yang, R. Olivares  : DMRG                   
  Ulf Ekstrom                                   : XCFun DFT Library      
  Mihaly Kallay                                 : mrcc  (arbitrary order and MRCC methods)
  Frank Weinhold                                : gennbo (NPA and NBO analysis)           
  Simon Mueller                                 : openCOSMO-RS                            
  Christopher J. Cramer and Donald G. Truhlar   : smd solvation model                     
  S Lehtola, MJT Oliveira, MAL Marques          : LibXC Library                           
  Liviu Ungur et al                             : ANISO software                          


 Your calculation uses the libint2 library for the computation of 2-el integrals
 For citations please refer to: http://libint.valeyev.net

 Your ORCA version has been built with support for libXC version: 6.2.2
 For citations please refer to: https://libxc.gitlab.io

 This ORCA versions uses:
   CBLAS   interface :  Fast vector & matrix operations
   LAPACKE interface :  Fast linear algebra routines
   SCALAPACK package :  Parallel linear algebra routines
   Shared memory     :  Shared parallel matrices
   BLAS/LAPACK       :  OpenBLAS 0.3.27  USE64BITINT DYNAMIC_ARCH NO_AFFINITY SkylakeX SINGLE_THREADED
        Core in use  :  SkylakeX
   Copyright (c) 2011-2014, The OpenBLAS Project


NOTE: MaxCore=5000 MB was set to SCF,MP2,MDCI,CIPSI,MRCI and CIS
      => If you want to overwrite this, your respective input block should be placed after the MaxCore statement
Warning: RI is on but no J-basis has been assigned. Assigning Def2/J (nothing to worry about!)
================================================================================

----- Orbital basis set information -----
Your calculation utilizes the basis: def2-TZVP
   F. Weigend and R. Ahlrichs, Phys. Chem. Chem. Phys. 7, 3297 (2005).

----- AuxJ basis set information -----
Your calculation utilizes the auxiliary basis: def2/J
   F. Weigend, Phys. Chem. Chem. Phys. 8, 1057 (2006).

================================================================================
                                        WARNINGS
                       Please study these warnings very carefully!
================================================================================


WARNING: Geometry Optimization
  ===> : Switching off AutoStart
         For restart on a previous wavefunction, please use MOREAD

================================================================================
                                       INPUT FILE
================================================================================
NAME = EC.inp
|  1> ! Opt B3LYP def2-TZVP TightSCF TightOpt CPCM(water)
|  2> 
|  3> %maxcore 5000
|  4> 
|  5> %pal
|  6> nprocs 20
|  7> end
|  8> 
|  9> * xyz 0 1
| 10> O         -0.01810        1.11950       -0.11210
| 11> O         -0.01830       -1.11960        0.11150
| 12> O          1.98220       -0.00010        0.00040
| 13> C         -1.35290        0.72760        0.17230
| 14> C         -1.35320       -0.72740       -0.17180
| 15> C          0.76030       -0.00010       -0.00030
| 16> H         -2.06510        1.30160       -0.42630
| 17> H         -1.54830        0.90660        1.23480
| 18> H         -2.06510       -1.30120        0.42740
| 19> H         -1.54950       -0.90630       -1.23420
| 20> *
| 21> 
| 22>                          ****END OF INPUT****
================================================================================

                       *****************************
                       * Geometry Optimization Run *
                       *****************************

Geometry optimization settings:
Update method            Update   .... BFGS
Choice of coordinates    CoordSys .... (2022) Redundant Internals
Initial Hessian          InHess   .... Almloef's Model
Max. no of cycles        MaxIter  .... 50

Convergence Tolerances:
Energy Change            TolE     ....  1.0000e-06 Eh
Max. Gradient            TolMAXG  ....  1.0000e-04 Eh/bohr
RMS Gradient             TolRMSG  ....  3.0000e-05 Eh/bohr
Max. Displacement        TolMAXD  ....  1.0000e-03 bohr
RMS Displacement         TolRMSD  ....  6.0000e-04 bohr
Strict Convergence                .... False

------------------------------------------------------------------------------
                        ORCA OPTIMIZATION COORDINATE SETUP
------------------------------------------------------------------------------

The optimization will be done in redundant internal coordinates (2022)
Making redundant internal coordinates   ...  (2022 redundants) done
Evaluating the initial hessian          ...  (Almloef) done
Evaluating the coordinates              ...  done
Calculating the B-matrix                .... done
Calculating the G-matrix                .... done
Diagonalizing the G-matrix              .... done
The first mode is                       ....   19
The number of degrees of freedom        ....   24

    -----------------------------------------------------------------
                    Redundant Internal Coordinates


    -----------------------------------------------------------------
         Definition                    Initial Value    Approx d2E/dq
    -----------------------------------------------------------------
      1. B(C   3,O   0)                  1.4199         0.501357   
      2. B(C   4,C   3)                  1.4951         0.424621   
      3. B(C   4,O   1)                  1.4199         0.501436   
      4. B(C   5,O   2)                  1.2219         1.037691   
      5. B(C   5,O   1)                  1.3682         0.606235   
      6. B(C   5,O   0)                  1.3682         0.606306   
      7. B(H   6,C   3)                  1.0932         0.355927   
      8. B(H   7,C   3)                  1.0950         0.353485   
      9. B(H   8,C   4)                  1.0932         0.355890   
     10. B(H   9,C   4)                  1.0951         0.353423   
     11. A(C   3,O   0,C   5)          107.0139         0.410849   
     12. A(C   4,O   1,C   5)          107.0193         0.410852   
     13. A(O   0,C   3,H   6)          110.9679         0.337795   
     14. A(O   0,C   3,H   7)          108.4796         0.337408   
     15. A(O   0,C   3,C   4)          102.8668         0.388383   
     16. A(C   4,C   3,H   7)          112.4790         0.330226   
     17. A(H   6,C   3,H   7)          109.2215         0.289465   
     18. A(C   4,C   3,H   6)          112.6330         0.330602   
     19. A(C   3,C   4,H   8)          112.6297         0.330596   
     20. A(O   1,C   4,H   8)          110.9706         0.337798   
     21. A(O   1,C   4,C   3)          102.8676         0.388394   
     22. A(H   8,C   4,H   9)          109.2246         0.289452   
     23. A(C   3,C   4,H   9)          112.4756         0.330216   
     24. A(O   1,C   4,H   9)          108.4797         0.337407   
     25. A(O   1,C   5,O   2)          124.6818         0.468441   
     26. A(O   0,C   5,O   2)          124.6790         0.468451   
     27. A(O   0,C   5,O   1)          110.6392         0.424987   
     28. D(C   4,C   3,O   0,C   5)    -25.3317         0.019875   
     29. D(H   6,C   3,O   0,C   5)   -146.0134         0.019875   
     30. D(H   7,C   3,O   0,C   5)     93.9993         0.019875   
     31. D(H   8,C   4,C   3,H   7)     33.7259         0.014259   
     32. D(H   9,C   4,O   1,C   5)     94.0232         0.019882   
     33. D(O   1,C   4,C   3,O   0)     30.7027         0.014259   
     34. D(H   8,C   4,O   1,C   5)   -145.9840         0.019882   
     35. D(O   1,C   4,C   3,H   7)    -85.8092         0.014259   
     36. D(H   8,C   4,C   3,O   0)    150.2377         0.014259   
     37. D(H   8,C   4,C   3,H   6)    -90.2292         0.014259   
     38. D(O   1,C   4,C   3,H   6)    150.2357         0.014259   
     39. D(C   3,C   4,O   1,C   5)    -25.3044         0.019882   
     40. D(O   0,C   5,O   1,C   4)     10.3076         0.026879   
     41. D(O   2,C   5,O   0,C   3)   -169.6054         0.026886   
     42. D(O   1,C   5,O   0,C   3)     10.3544         0.026886   
     43. D(O   2,C   5,O   1,C   4)   -169.7326         0.026879   
    -----------------------------------------------------------------

Number of atoms                         .... 10
Number of degrees of freedom            .... 43


         *************************************************************
         *                GEOMETRY OPTIMIZATION CYCLE   1            *
         *************************************************************
---------------------------------
CARTESIAN COORDINATES (ANGSTROEM)
---------------------------------
  O     -0.018100    1.119500   -0.112100
  O     -0.018300   -1.119600    0.111500
  O      1.982200   -0.000100    0.000400
  C     -1.352900    0.727600    0.172300
  C     -1.353200   -0.727400   -0.171800
  C      0.760300   -0.000100   -0.000300
  H     -2.065100    1.301600   -0.426300
  H     -1.548300    0.906600    1.234800
  H     -2.065100   -1.301200    0.427400
  H     -1.549500   -0.906300   -1.234200

----------------------------
CARTESIAN COORDINATES (A.U.)
----------------------------
  NO LB      ZA    FRAG     MASS         X           Y           Z
   0 O     8.0000    0    15.999   -0.034204    2.115548   -0.211838
   1 O     8.0000    0    15.999   -0.034582   -2.115737    0.210704
   2 O     8.0000    0    15.999    3.745815   -0.000189    0.000756
   3 C     6.0000    0    12.011   -2.556610    1.374965    0.325600
   4 C     6.0000    0    12.011   -2.557177   -1.374587   -0.324655
   5 C     6.0000    0    12.011    1.436759   -0.000189   -0.000567
   6 H     1.0000    0     1.008   -3.902473    2.459668   -0.805590
   7 H     1.0000    0     1.008   -2.925863    1.713226    2.333434
   8 H     1.0000    0     1.008   -3.902473   -2.458912    0.807669
   9 H     1.0000    0     1.008   -2.928131   -1.712659   -2.332300

--------------------------------
INTERNAL COORDINATES (ANGSTROEM)
--------------------------------
 O      0   0   0     0.000000000000     0.00000000     0.00000000
 O      1   0   0     2.250236834202     0.00000000     0.00000000
 O      1   2   0     2.295073092518    60.64583960     0.00000000
 C      1   2   3     1.419915493964    72.86509508   190.38141494
 C      2   1   3     1.419872437932    72.86658929   190.29377070
 C      3   1   2     1.221900200507    29.35599380     0.02621822
 H      4   1   2     1.093172813420   110.96792687   220.13028085
 H      4   1   2     1.095047218160   108.47963609   100.14293672
 H      5   2   1     1.093201120563   110.97061219   220.13186642
 H      5   2   1     1.095094817813   108.47974923   100.13899341

---------------------------
INTERNAL COORDINATES (A.U.)
---------------------------
 O      0   0   0     0.000000000000     0.00000000     0.00000000
 O      1   0   0     4.252331353104     0.00000000     0.00000000
 O      1   2   0     4.337059602191    60.64583960     0.00000000
 C      1   2   3     2.683251416904    72.86509508   190.38141494
 C      2   1   3     2.683170052795    72.86658929   190.29377070
 C      3   1   2     2.309056741942    29.35599380     0.02621822
 H      4   1   2     2.065797234411   110.96792687   220.13028085
 H      4   1   2     2.069339346035   108.47963609   100.14293672
 H      5   2   1     2.065850727160   110.97061219   220.13186642
 H      5   2   1     2.069429296342   108.47974923   100.13899341

---------------------
BASIS SET INFORMATION
---------------------
There are 3 groups of distinct atoms

 Group   1 Type O   : 11s6p2d1f contracted to 5s3p2d1f pattern {62111/411/11/1}
 Group   2 Type C   : 11s6p2d1f contracted to 5s3p2d1f pattern {62111/411/11/1}
 Group   3 Type H   : 5s1p contracted to 3s1p pattern {311/1}

Atom   0O    basis set group =>   1
Atom   1O    basis set group =>   1
Atom   2O    basis set group =>   1
Atom   3C    basis set group =>   2
Atom   4C    basis set group =>   2
Atom   5C    basis set group =>   2
Atom   6H    basis set group =>   3
Atom   7H    basis set group =>   3
Atom   8H    basis set group =>   3
Atom   9H    basis set group =>   3
---------------------------------
AUXILIARY/J BASIS SET INFORMATION
---------------------------------
There are 3 groups of distinct atoms

 Group   1 Type O   : 12s5p4d2f1g contracted to 6s4p3d1f1g pattern {711111/2111/211/2/1}
 Group   2 Type C   : 12s5p4d2f1g contracted to 6s4p3d1f1g pattern {711111/2111/211/2/1}
 Group   3 Type H   : 5s2p1d contracted to 3s1p1d pattern {311/2/1}

Atom   0O    basis set group =>   1
Atom   1O    basis set group =>   1
Atom   2O    basis set group =>   1
Atom   3C    basis set group =>   2
Atom   4C    basis set group =>   2
Atom   5C    basis set group =>   2
Atom   6H    basis set group =>   3
Atom   7H    basis set group =>   3
Atom   8H    basis set group =>   3
Atom   9H    basis set group =>   3


           ************************************************************
           *        Program running with 20 parallel MPI-processes    *
           *              working on a common directory               *
           ************************************************************
------------------------------------------------------------------------------
                             ORCA STARTUP CALCULATIONS
                           -- RI-GTO INTEGRALS CHOSEN --
------------------------------------------------------------------------------
------------------------------------------------------------------------------
                   ___                                                        
                  /   \      - P O W E R E D   B Y -                         
                 /     \                                                     
                 |  |  |   _    _      __       _____    __    __             
                 |  |  |  | |  | |    /  \     |  _  \  |  |  /  |          
                  \  \/   | |  | |   /    \    | | | |  |  | /  /          
                 / \  \   | |__| |  /  /\  \   | |_| |  |  |/  /          
                |  |  |   |  __  | /  /__\  \  |    /   |      \           
                |  |  |   | |  | | |   __   |  |    \   |  |\   \          
                \     /   | |  | | |  |  |  |  | |\  \  |  | \   \       
                 \___/    |_|  |_| |__|  |__|  |_| \__\ |__|  \__/        
                                                                              
                      - O R C A' S   B I G   F R I E N D -                    
                                      &                                       
                       - I N T E G R A L  F E E D E R -                       
                                                                              
 v1 FN, 2020, v2 2021, v3 2022-2024                                           
------------------------------------------------------------------------------


----------------------
SHARK INTEGRAL PACKAGE
----------------------

Number of atoms                             ...     10
Number of basis functions                   ...    210
Number of shells                            ...     82
Maximum angular momentum                    ...      3
Integral batch strategy                     ... SHARK/LIBINT Hybrid
RI-J (if used) integral strategy            ... SPLIT-RIJ (Revised 2003 algorithm where possible)
Printlevel                                  ...      1
Contraction scheme used                     ... SEGMENTED contraction
Prescreening option                         ... SCHWARTZ
   Thresh                                   ... 2.500e-11
   Tcut                                     ... 2.500e-12
   Tpresel                                  ... 2.500e-12 
Coulomb Range Separation                    ... NOT USED
Exchange Range Separation                   ... NOT USED
Multipole approximations                    ... NOT USED
Finite Nucleus Model                        ... NOT USED
CABS basis                                  ... NOT available
Auxiliary Coulomb fitting basis             ... AVAILABLE
   # of basis functions in Aux-J            ...    338
   # of shells in Aux-J                     ...    110
   Maximum angular momentum in Aux-J        ...      4
Auxiliary J/K fitting basis                 ... NOT available
Auxiliary Correlation fitting basis         ... NOT available
Auxiliary 'external' fitting basis          ... NOT available

Checking pre-screening integrals            ... done (  0.0 sec) Dimension = 82
Check shell pair data                       ... done (  0.0 sec)
Shell pair information
Shell pair cut-off parameter TPreSel        ...   2.5e-12
Total number of shell pairs                 ...      3403
Shell pairs after pre-screening             ...      3265
Total number of primitive shell pairs       ...     10584
Primitive shell pairs kept                  ...      8005
          la=0 lb=0:    831 shell pairs
          la=1 lb=0:    900 shell pairs
          la=1 lb=1:    251 shell pairs
          la=2 lb=0:    480 shell pairs
          la=2 lb=1:    260 shell pairs
          la=2 lb=2:     78 shell pairs
          la=3 lb=0:    242 shell pairs
          la=3 lb=1:    130 shell pairs
          la=3 lb=2:     72 shell pairs
          la=3 lb=3:     21 shell pairs

Calculating one electron integrals          ... done (  0.0 sec)
Calculating RI/J V-Matrix + Cholesky decomp.... done (  0.0 sec)
Calculating Nuclear repulsion               ... done (  0.0 sec) ENN=    246.398107401513 Eh

Diagonalization of the overlap matrix:
Smallest eigenvalue                        ... 3.718e-04
Time for diagonalization                   ...    0.003 sec
Threshold for overlap eigenvalues          ... 1.000e-07
Number of eigenvalues below threshold      ... 0
Time for construction of square roots      ...    0.003 sec
Total time needed                          ...    0.008 sec

-------------------
DFT GRID GENERATION
-------------------

General Integration Accuracy     IntAcc      ... 4.388
Radial Grid Type                 RadialGrid  ... OptM3 with GC (2021)
Angular Grid (max. ang.)         AngularGrid ... 4 (Lebedev-302)
Angular grid pruning method      GridPruning ... 4 (adaptive)
Weight generation scheme         WeightScheme... mBecke (2022)
Basis function cutoff            BFCut       ... 1.0000e-11
Integration weight cutoff        WCut        ... 1.0000e-14
Partially contracted basis set               ... off
Rotationally invariant grid construction     ... off
Angular grids for H and He will be reduced by one unit

Total number of grid points                  ...    49292
Total number of batches                      ...      775
Average number of points per batch           ...       63
Average number of grid points per atom       ...     4929

--------------------
COSX GRID GENERATION
--------------------

GRIDX 1
-------
General Integration Accuracy     IntAcc      ... 3.816
Radial Grid Type                 RadialGrid  ... OptM3 with GC (2021)
Angular Grid (max. ang.)         AngularGrid ... 1 (Lebedev-50)
Angular grid pruning method      GridPruning ... 4 (adaptive)
Weight generation scheme         WeightScheme... mBecke (2022)
Basis function cutoff            BFCut       ... 1.0000e-11
Integration weight cutoff        WCut        ... 1.0000e-14
Partially contracted basis set               ... on
Rotationally invariant grid construction     ... off
Angular grids for H and He will be reduced by one unit

Total number of grid points                  ...     6274
Total number of batches                      ...       56
Average number of points per batch           ...      112
Average number of grid points per atom       ...      627
UseSFitting                                  ... on

GRIDX 2
-------
General Integration Accuracy     IntAcc      ... 4.020
Radial Grid Type                 RadialGrid  ... OptM3 with GC (2021)
Angular Grid (max. ang.)         AngularGrid ... 2 (Lebedev-110)
Angular grid pruning method      GridPruning ... 4 (adaptive)
Weight generation scheme         WeightScheme... mBecke (2022)
Basis function cutoff            BFCut       ... 1.0000e-11
Integration weight cutoff        WCut        ... 1.0000e-14
Partially contracted basis set               ... on
Rotationally invariant grid construction     ... off
Angular grids for H and He will be reduced by one unit

Total number of grid points                  ...    14049
Total number of batches                      ...      115
Average number of points per batch           ...      122
Average number of grid points per atom       ...     1405
UseSFitting                                  ... on

GRIDX 3
-------
General Integration Accuracy     IntAcc      ... 4.338
Radial Grid Type                 RadialGrid  ... OptM3 with GC (2021)
Angular Grid (max. ang.)         AngularGrid ... 3 (Lebedev-194)
Angular grid pruning method      GridPruning ... 4 (adaptive)
Weight generation scheme         WeightScheme... mBecke (2022)
Basis function cutoff            BFCut       ... 1.0000e-11
Integration weight cutoff        WCut        ... 1.0000e-14
Partially contracted basis set               ... on
Rotationally invariant grid construction     ... off
Angular grids for H and He will be reduced by one unit

Total number of grid points                  ...    31021
Total number of batches                      ...      246
Average number of points per batch           ...      126
Average number of grid points per atom       ...     3102
UseSFitting                                  ... on
Initializing property integral containers    ... done (  0.0 sec)

SHARK setup successfully completed in   0.4 seconds

Maximum memory used throughout the entire STARTUP-calculation: 16.6 MB


           ************************************************************
           *        Program running with 20 parallel MPI-processes    *
           *              working on a common directory               *
           ************************************************************
-------------------------------------------------------------------------------
                                 ORCA GUESS
                   Start orbitals & Density for SCF / CASSCF
-------------------------------------------------------------------------------

------------
SCF SETTINGS
------------
Hamiltonian:
 Density Functional     Method          .... DFT(GTOs)
 Exchange Functional    Exchange        .... B88
   X-Alpha parameter    XAlpha          ....  0.666667
   Becke's b parameter  XBeta           ....  0.004200
 Correlation Functional Correlation     .... LYP
 LDA part of GGA corr.  LDAOpt          .... VWN-5
 Gradients option       PostSCFGGA      .... off
 Hybrid DFT is turned on
   Fraction HF Exchange ScalHFX         ....  0.200000
   Scaling of DF-GGA-X  ScalDFX         ....  0.720000
   Scaling of DF-GGA-C  ScalDFC         ....  0.810000
   Scaling of DF-LDA-C  ScalLDAC        ....  1.000000
   Perturbative correction              ....  0.000000
   NL short-range parameter             ....  4.800000
 RI-approximation to the Coulomb term is turned on
   Number of AuxJ basis functions       .... 338
   RIJ-COSX (HFX calculated with COS-X)).... on


General Settings:
 Integral files         IntName         .... EC
 Hartree-Fock type      HFTyp           .... RHF
 Total Charge           Charge          ....    0
 Multiplicity           Mult            ....    1
 Number of Electrons    NEL             ....   46
 Basis Dimension        Dim             ....  210
 Nuclear Repulsion      ENuc            ....    246.3981074015 Eh

Convergence Acceleration:
 AO-DIIS                CNVDIIS         .... on
   Start iteration      DIISMaxIt       ....    12
   Startup error        DIISStart       ....  0.200000
   # of expansion vecs  DIISMaxEq       ....     5
   Bias factor          DIISBfac        ....   1.050
   Max. coefficient     DIISMaxC        ....  10.000
 MO-DIIS                CNVKDIIS        .... off
 Trust-Rad. Augm. Hess. CNVTRAH         .... auto
   Auto Start mean grad. ratio tolernc. ....  1.125000
   Auto Start start iteration           ....    50
   Auto Start num. interpolation iter.  ....    10
   Max. Number of Micro iterations      ....    24
   Max. Number of Macro iterations      .... Maxiter - #DIIS iter
   Number of Davidson start vectors     ....     2
   Converg. threshold    (grad. norm)   ....   1.000e-05
   Grad. Scal. Fac. for Micro threshold ....   0.100
   Minimum threshold for Micro iter.    ....   1.000e-02
   NR start threshold (gradient norm)   ....   1.000e-04
   Initial trust radius                 ....   0.400
   Minimum AH scaling param. (alpha)    ....   1.000
   Maximum AH scaling param. (alpha)    .... 1000.000
   Quad. conv. algorithm                .... NR
   White noise on init. David. guess    .... on
   Maximum white noise                  ....   0.010
   Pseudo random numbers                .... off
   Inactive MOs                         .... canonical
   Orbital update algorithm             .... Taylor
   Preconditioner                       .... Diag
   Full preconditioner red. dimension   ....   250
 SOSCF                  CNVSOSCF        .... on
   Start iteration      SOSCFMaxIt      ....   150
   Startup grad/error   SOSCFStart      ....  0.003300
   Hessian update       SOSCFHessUp     .... L-BFGS
 Level Shifting         CNVShift        .... on
   Level shift para.    LevelShift      ....    0.2500
   Turn off err/grad.   ShiftErr        ....    0.0010
 Zerner damping         CNVZerner       .... off
 Static damping         CNVDamp         .... on
   Fraction old density DampFac         ....    0.7000
   Max. Damping (<1)    DampMax         ....    0.9800
   Min. Damping (>=0)   DampMin         ....    0.0000
   Turn off err/grad.   DampErr         ....    0.1000

SCF Procedure:
 Maximum # iterations   MaxIter         ....   125
 SCF integral mode      SCFMode         .... Direct
   Integral package                     .... SHARK and LIBINT hybrid scheme
 Reset frequency        DirectResetFreq ....    20
 Integral Threshold     Thresh          ....  2.500e-11 Eh
 Primitive CutOff       TCut            ....  2.500e-12 Eh

Convergence Tolerance:
 Convergence Check Mode ConvCheckMode   .... Total+1el-Energy
 Convergence forced     ConvForced      .... 0
 Energy Change          TolE            ....  1.000e-08 Eh
 1-El. energy change                    ....  1.000e-05 Eh
 Orbital Gradient       TolG            ....  1.000e-05
 Orbital Rotation angle TolX            ....  1.000e-05
 DIIS Error             TolErr          ....  5.000e-07

------------------------------
INITIAL GUESS: MODEL POTENTIAL
------------------------------
Loading Hartree-Fock densities                     ... done
Calculating cut-offs                               ... done
Initializing the effective Hamiltonian             ... done
Setting up the integral package (SHARK)            ... done
Starting the Coulomb interaction                   ... done (   0.0 sec)
Making the grid                                    ... done (   0.1 sec)
Mapping shells                                     ... done
Starting the XC term evaluation                    ... done (   0.0 sec)
  promolecular density results
     # of electrons  =     45.996547973
     EX              =    -41.225206288
     EC              =     -1.616396361
     EX+EC           =    -42.841602649
Transforming the Hamiltonian                       ... done (   0.0 sec)
Diagonalizing the Hamiltonian                      ... done (   0.0 sec)
Back transforming the eigenvectors                 ... done (   0.0 sec)
Now organizing SCF variables                       ... done
                      ------------------
                      INITIAL GUESS DONE (   0.1 sec)
                      ------------------
             **** ENERGY FILE WAS UPDATED (EC.en.tmp) ****
Finished Guess after   0.6 sec
Maximum memory used throughout the entire GUESS-calculation: 11.7 MB


           ************************************************************
           *        Program running with 20 parallel MPI-processes    *
           *              working on a common directory               *
           ************************************************************

-------------------------------------------------------------------------------------------
                                      ORCA LEAN-SCF
                              memory conserving SCF solver
-------------------------------------------------------------------------------------------

--------------------
CPCM SOLVATION MODEL
--------------------
CPCM parameters:
  Epsilon                                         ...      80.1510
  Refrac                                          ...       1.3328
  Rsolv                                           ...       1.3000
  Surface type                                    ... GAUSSIAN VDW
  Discretization scheme                           ... Constant charge density
    Threshold for H atoms                         ...       5.0000 (charges/Ang^2)
    Threshold for non-H atoms                     ...       5.0000 (charges/Ang^2)
  Epsilon function type                           ...         CPCM
Solvent:                                          ... WATER
Radii:
  Scheme                                          ... Element-dependent radii
  Radius for O  used is    3.4469 Bohr (=   1.8240 Ang.)
  Radius for C  used is    3.8550 Bohr (=   2.0400 Ang.)
  Radius for H  used is    2.4944 Bohr (=   1.3200 Ang.)
Calculating surface                               ...        done! (  0.0s)
Cavity surface points                             ...          997
Cavity Volume                                     ...     666.4265
Cavity Surface-area                               ...     409.1890
Calculating surface distance matrix               ...        done! (  0.0s)
Performing Cholesky decomposition & store         ...        done! (  0.0s)
Overall time for CPCM initialization              ...                 0.0s

----------------------------------------D-I-I-S--------------------------------------------
Iteration    Energy (Eh)           Delta-E    RMSDP     MaxDP     DIISErr   Damp  Time(sec)
-------------------------------------------------------------------------------------------
               ***  Starting incremental Fock matrix formation  ***
    1    -342.1932081821025804     0.00e+00  1.65e-03  6.12e-02  3.13e-01  0.700   0.3
    2    -342.2874767650607737    -9.43e-02  1.02e-03  3.33e-02  1.18e-01  0.700   0.3
                               ***Turning on AO-DIIS***
    3    -342.3178907516406753    -3.04e-02  3.78e-04  7.74e-03  2.95e-02  0.700   0.3
    4    -342.3384092442631754    -2.05e-02  5.35e-04  1.37e-02  1.20e-02  0.000   0.3
    5    -342.3855715026447797    -4.72e-02  1.64e-04  3.72e-03  4.63e-03  0.000   0.3
                              *** Initializing SOSCF ***
---------------------------------------S-O-S-C-F--------------------------------------
Iteration    Energy (Eh)           Delta-E    RMSDP     MaxDP     MaxGrad    Time(sec)
--------------------------------------------------------------------------------------
    6    -342.3857268773706437    -1.55e-04  5.79e-05  9.55e-04  1.90e-03     0.3
               *** Restarting incremental Fock matrix formation ***
    7    -342.3857168589707953     1.00e-05  4.40e-05  1.30e-03  5.53e-04     0.3
    8    -342.3857077353632121     9.12e-06  2.44e-05  8.55e-04  1.10e-03     0.3
    9    -342.3857211938563978    -1.35e-05  4.66e-06  1.82e-04  9.31e-05     0.3
   10    -342.3857210469161600     1.47e-07  2.85e-06  9.55e-05  1.32e-04     0.3
   11    -342.3857212848625977    -2.38e-07  5.30e-07  9.38e-06  4.37e-06     0.3
   12    -342.3857212891800827    -4.32e-09  2.60e-07  4.37e-06  4.29e-06     0.3
                 **** Energy Check signals convergence ****

               *****************************************************
               *                     SUCCESS                       *
               *           SCF CONVERGED AFTER  12 CYCLES          *
               *****************************************************

Recomputing exchange energy using gridx3       ... done (    0.339 sec)
Old exchange energy                            :     -8.334540150 Eh
New exchange energy                            :     -8.334545631 Eh
Exchange energy change after final integration :     -0.000005481 Eh
Total energy after final integration           :   -342.385726770 Eh
             **** ENERGY FILE WAS UPDATED (EC.en.tmp) ****

----------------
TOTAL SCF ENERGY
----------------

Total Energy       :       -342.38572676986314 Eh           -9316.78928 eV

Components:
Nuclear Repulsion  :        246.39810740151324 Eh            6704.83337 eV
Electronic Energy  :       -588.76463353798363 Eh          -16021.10018 eV
One Electron Energy:       -955.57988768401776 Eh          -26002.65069 eV
Two Electron Energy:        366.81525414603414 Eh            9981.55052 eV
CPCM Dielectric    :         -0.01919515270975 Eh              -0.52233 eV

Virial components:
Potential Energy   :       -683.31364302077486 Eh          -18593.90952 eV
Kinetic Energy     :        340.92791625091178 Eh            9277.12024 eV
Virial Ratio       :          2.00427600806347

DFT components:
N(Alpha)           :       22.999990863630 electrons
N(Beta)            :       22.999990863630 electrons
N(Total)           :       45.999981727260 electrons
E(X)               :      -33.191868021424 Eh       
E(C)               :       -1.901878169236 Eh       
E(XC)              :      -35.093746190660 Eh       

CPCM Solvation Model Properties:
Surface-charge          :         -0.01517441388342
Corrected charge        :          0.00000000000000
Outlying charge corr.   :          0.00002021714961 Eh               0.00055 eV
Free-energy (cav+disp)  :  This term is not implemented in the current solvation scheme

---------------
SCF CONVERGENCE
---------------

  Last Energy change         ...    4.3175e-09  Tolerance :   1.0000e-08
  Last MAX-Density change    ...    4.3672e-06  Tolerance :   1.0000e-07
  Last RMS-Density change    ...    2.6022e-07  Tolerance :   5.0000e-09
  Last DIIS Error            ...    1.9019e-03  Tolerance :   5.0000e-07
  Last Orbital Gradient      ...    4.2884e-06  Tolerance :   1.0000e-05
  Last Orbital Rotation      ...    3.0454e-06  Tolerance :   1.0000e-05


----------------
ORBITAL ENERGIES
----------------

  NO   OCC          E(Eh)            E(eV) 
   0   2.0000     -19.193886      -522.2922 
   1   2.0000     -19.193871      -522.2918 
   2   2.0000     -19.132780      -520.6294 
   3   2.0000     -10.364632      -282.0360 
   4   2.0000     -10.237031      -278.5638 
   5   2.0000     -10.236760      -278.5564 
   6   2.0000      -1.166440       -31.7405 
   7   2.0000      -1.057771       -28.7834 
   8   2.0000      -1.046543       -28.4779 
   9   2.0000      -0.780793       -21.2465 
  10   2.0000      -0.675343       -18.3770 
  11   2.0000      -0.617657       -16.8073 
  12   2.0000      -0.548985       -14.9386 
  13   2.0000      -0.527709       -14.3597 
  14   2.0000      -0.497861       -13.5475 
  15   2.0000      -0.460332       -12.5263 
  16   2.0000      -0.441696       -12.0192 
  17   2.0000      -0.436871       -11.8879 
  18   2.0000      -0.397124       -10.8063 
  19   2.0000      -0.375531       -10.2187 
  20   2.0000      -0.327847        -8.9212 
  21   2.0000      -0.315135        -8.5752 
  22   2.0000      -0.314743        -8.5646 
  23   0.0000       0.005303         0.1443 
  24   0.0000       0.039549         1.0762 
  25   0.0000       0.060675         1.6511 
  26   0.0000       0.081498         2.2177 
  27   0.0000       0.098558         2.6819 
  28   0.0000       0.122046         3.3210 
  29   0.0000       0.135209         3.6792 
  30   0.0000       0.145877         3.9695 
  31   0.0000       0.183819         5.0020 
  32   0.0000       0.185407         5.0452 
  33   0.0000       0.190689         5.1889 
*Only the first 10 virtual orbitals were printed.

                    ********************************
                    * MULLIKEN POPULATION ANALYSIS *
                    ********************************

-----------------------
MULLIKEN ATOMIC CHARGES
-----------------------
   0 O :   -0.270449
   1 O :   -0.270440
   2 O :   -0.391740
   3 C :   -0.017089
   4 C :   -0.017068
   5 C :    0.417553
   6 H :    0.147162
   7 H :    0.127461
   8 H :    0.147160
   9 H :    0.127449
Sum of atomic charges:   -0.0000000

--------------------------------
MULLIKEN REDUCED ORBITAL CHARGES
--------------------------------
  0 O s       :     3.777861  s :     3.777861
      pz      :     1.711696  p :     4.449791
      px      :     1.249841
      py      :     1.488254
      dz2     :     0.004742  d :     0.040765
      dxz     :     0.005920
      dyz     :     0.005609
      dx2y2   :     0.010333
      dxy     :     0.014162
      f0      :     0.000287  f :     0.002032
      f+1     :     0.000339
      f-1     :     0.000222
      f+2     :     0.000136
      f-2     :     0.000193
      f+3     :     0.000474
      f-3     :     0.000381

  1 O s       :     3.777861  s :     3.777861
      pz      :     1.711799  p :     4.449783
      px      :     1.249677
      py      :     1.488307
      dz2     :     0.004740  d :     0.040765
      dxz     :     0.005919
      dyz     :     0.005607
      dx2y2   :     0.010331
      dxy     :     0.014167
      f0      :     0.000287  f :     0.002032
      f+1     :     0.000339
      f-1     :     0.000222
      f+2     :     0.000136
      f-2     :     0.000193
      f+3     :     0.000474
      f-3     :     0.000381

  2 O s       :     3.800191  s :     3.800191
      pz      :     1.482692  p :     4.561393
      px      :     1.315527
      py      :     1.763174
      dz2     :     0.002589  d :     0.028349
      dxz     :     0.010321
      dyz     :     0.000078
      dx2y2   :     0.008210
      dxy     :     0.007151
      f0      :     0.000197  f :     0.001808
      f+1     :     0.000189
      f-1     :     0.000023
      f+2     :     0.000439
      f-2     :     0.000013
      f+3     :     0.000423
      f-3     :     0.000524

  3 C s       :     3.222938  s :     3.222938
      pz      :     1.043300  p :     2.676502
      px      :     0.707342
      py      :     0.925860
      dz2     :     0.016761  d :     0.107179
      dxz     :     0.027518
      dyz     :     0.015456
      dx2y2   :     0.017793
      dxy     :     0.029650
      f0      :     0.001669  f :     0.010470
      f+1     :     0.001197
      f-1     :     0.000747
      f+2     :     0.001665
      f-2     :     0.000723
      f+3     :     0.002516
      f-3     :     0.001953

  4 C s       :     3.222947  s :     3.222947
      pz      :     1.043425  p :     2.676477
      px      :     0.707264
      py      :     0.925787
      dz2     :     0.016737  d :     0.107174
      dxz     :     0.027541
      dyz     :     0.015453
      dx2y2   :     0.017794
      dxy     :     0.029649
      f0      :     0.001669  f :     0.010471
      f+1     :     0.001196
      f-1     :     0.000747
      f+2     :     0.001665
      f-2     :     0.000723
      f+3     :     0.002517
      f-3     :     0.001953

  5 C s       :     3.012726  s :     3.012726
      pz      :     0.776950  p :     2.266373
      px      :     0.750341
      py      :     0.739082
      dz2     :     0.011343  d :     0.272606
      dxz     :     0.071581
      dyz     :     0.042543
      dx2y2   :     0.057302
      dxy     :     0.089836
      f0      :     0.003327  f :     0.030743
      f+1     :     0.001919
      f-1     :     0.001404
      f+2     :     0.003239
      f-2     :     0.003916
      f+3     :     0.005365
      f-3     :     0.011572

  6 H s       :     0.832023  s :     0.832023
      pz      :     0.006521  p :     0.020815
      px      :     0.007567
      py      :     0.006727

  7 H s       :     0.851593  s :     0.851593
      pz      :     0.013470  p :     0.020946
      px      :     0.003298
      py      :     0.004178

  8 H s       :     0.832026  s :     0.832026
      pz      :     0.006527  p :     0.020814
      px      :     0.007563
      py      :     0.006725

  9 H s       :     0.851606  s :     0.851606
      pz      :     0.013467  p :     0.020945
      px      :     0.003301
      py      :     0.004177



                     *******************************
                     * LOEWDIN POPULATION ANALYSIS *
                     *******************************

----------------------
LOEWDIN ATOMIC CHARGES
----------------------
   0 O :    0.248536
   1 O :    0.248544
   2 O :    0.031033
   3 C :   -0.271663
   4 C :   -0.271704
   5 C :   -0.548504
   6 H :    0.144594
   7 H :    0.137278
   8 H :    0.144602
   9 H :    0.137283

-------------------------------
LOEWDIN REDUCED ORBITAL CHARGES
-------------------------------
  0 O s       :     3.276345  s :     3.276345
      pz      :     1.587093  p :     4.362640
      px      :     1.285498
      py      :     1.490049
      dz2     :     0.011859  d :     0.105043
      dxz     :     0.017627
      dyz     :     0.007852
      dx2y2   :     0.027761
      dxy     :     0.039944
      f0      :     0.000545  f :     0.007436
      f+1     :     0.000848
      f-1     :     0.000481
      f+2     :     0.000635
      f-2     :     0.000770
      f+3     :     0.002157
      f-3     :     0.001999

  1 O s       :     3.276338  s :     3.276338
      pz      :     1.587137  p :     4.362634
      px      :     1.285416
      py      :     1.490082
      dz2     :     0.011853  d :     0.105048
      dxz     :     0.017629
      dyz     :     0.007849
      dx2y2   :     0.027761
      dxy     :     0.039957
      f0      :     0.000546  f :     0.007436
      f+1     :     0.000847
      f-1     :     0.000481
      f+2     :     0.000635
      f-2     :     0.000770
      f+3     :     0.002158
      f-3     :     0.001999

  2 O s       :     3.421433  s :     3.421433
      pz      :     1.388349  p :     4.480446
      px      :     1.470132
      py      :     1.621965
      dz2     :     0.008213  d :     0.061301
      dxz     :     0.014019
      dyz     :     0.000120
      dx2y2   :     0.025685
      dxy     :     0.013264
      f0      :     0.000466  f :     0.005786
      f+1     :     0.001036
      f-1     :     0.000081
      f+2     :     0.000835
      f-2     :     0.000053
      f+3     :     0.001987
      f-3     :     0.001329

  3 C s       :     2.803609  s :     2.803609
      pz      :     1.056338  p :     2.896720
      px      :     0.808724
      py      :     1.031658
      dz2     :     0.095851  d :     0.497392
      dxz     :     0.101380
      dyz     :     0.066986
      dx2y2   :     0.109266
      dxy     :     0.123910
      f0      :     0.008619  f :     0.073941
      f+1     :     0.007194
      f-1     :     0.004758
      f+2     :     0.012616
      f-2     :     0.007933
      f+3     :     0.016549
      f-3     :     0.016273

  4 C s       :     2.803613  s :     2.803613
      pz      :     1.056419  p :     2.896736
      px      :     0.808698
      py      :     1.031619
      dz2     :     0.095752  d :     0.497406
      dxz     :     0.101470
      dyz     :     0.066983
      dx2y2   :     0.109287
      dxy     :     0.123915
      f0      :     0.008624  f :     0.073948
      f+1     :     0.007188
      f-1     :     0.004762
      f+2     :     0.012605
      f-2     :     0.007928
      f+3     :     0.016562
      f-3     :     0.016280

  5 C s       :     2.753263  s :     2.753263
      pz      :     0.766671  p :     2.577226
      px      :     0.949237
      py      :     0.861318
      dz2     :     0.080405  d :     1.036286
      dxz     :     0.193638
      dyz     :     0.125146
      dx2y2   :     0.272487
      dxy     :     0.364608
      f0      :     0.010573  f :     0.181729
      f+1     :     0.013552
      f-1     :     0.010603
      f+2     :     0.022067
      f-2     :     0.023092
      f+3     :     0.033648
      f-3     :     0.068194

  6 H s       :     0.796333  s :     0.796333
      pz      :     0.020560  p :     0.059073
      px      :     0.020264
      py      :     0.018249

  7 H s       :     0.803486  s :     0.803486
      pz      :     0.037463  p :     0.059236
      px      :     0.009525
      py      :     0.012249

  8 H s       :     0.796329  s :     0.796329
      pz      :     0.020577  p :     0.059069
      px      :     0.020251
      py      :     0.018241

  9 H s       :     0.803488  s :     0.803488
      pz      :     0.037453  p :     0.059228
      px      :     0.009530
      py      :     0.012245



                      *****************************
                      * MAYER POPULATION ANALYSIS *
                      *****************************

  NA   - Mulliken gross atomic population
  ZA   - Total nuclear charge
  QA   - Mulliken gross atomic charge
  VA   - Mayer's total valence
  BVA  - Mayer's bonded valence
  FA   - Mayer's free valence

  ATOM       NA         ZA         QA         VA         BVA        FA
  0 O      8.2704     8.0000    -0.2704     2.0997     2.0997    -0.0000
  1 O      8.2704     8.0000    -0.2704     2.0997     2.0997     0.0000
  2 O      8.3917     8.0000    -0.3917     2.1211     2.1211     0.0000
  3 C      6.0171     6.0000    -0.0171     3.8416     3.8416    -0.0000
  4 C      6.0171     6.0000    -0.0171     3.8416     3.8416    -0.0000
  5 C      5.5824     6.0000     0.4176     4.4680     4.4680    -0.0000
  6 H      0.8528     1.0000     0.1472     0.9578     0.9578    -0.0000
  7 H      0.8725     1.0000     0.1275     0.9640     0.9640    -0.0000
  8 H      0.8528     1.0000     0.1472     0.9578     0.9578    -0.0000
  9 H      0.8726     1.0000     0.1274     0.9640     0.9640    -0.0000

  Mayer bond orders larger than 0.100000
B(  0-O ,  3-C ) :   0.8976 B(  0-O ,  5-C ) :   1.1712 B(  1-O ,  4-C ) :   0.8976 
B(  1-O ,  5-C ) :   1.1711 B(  2-O ,  5-C ) :   2.0573 B(  3-C ,  4-C ) :   1.0024 
B(  3-C ,  6-H ) :   0.9516 B(  3-C ,  7-H ) :   0.9603 B(  4-C ,  8-H ) :   0.9516 
B(  4-C ,  9-H ) :   0.9603 

-------
TIMINGS
-------

Total SCF time: 0 days 0 hours 0 min 4 sec 

Total time                  ....       4.334 sec
Sum of individual times     ....       4.286 sec  ( 98.9%)

SCF preparation             ....       0.591 sec  ( 13.6%)
Fock matrix formation       ....       3.330 sec  ( 76.8%)
  Startup                   ....       0.035 sec  (  1.0% of F)
  Split-RI-J                ....       0.248 sec  (  7.4% of F)
  Chain of spheres X        ....       2.042 sec  ( 61.3% of F)
  XC integration            ....       0.614 sec  ( 18.4% of F)
    Basis function eval.    ....       0.103 sec  ( 16.8% of XC)
    Density eval.           ....       0.088 sec  ( 14.3% of XC)
    XC-Functional eval.     ....       0.018 sec  (  2.9% of XC)
    XC-Potential eval.      ....       0.136 sec  ( 22.2% of XC)
  CPCM terms                ....       0.319 sec  (  9.6% of F)
Diagonalization             ....       0.000 sec  (  0.0%)
Density matrix formation    ....       0.056 sec  (  1.3%)
Total Energy calculation    ....       0.048 sec  (  1.1%)
Population analysis         ....       0.020 sec  (  0.5%)
Orbital Transformation      ....       0.028 sec  (  0.6%)
Orbital Orthonormalization  ....       0.000 sec  (  0.0%)
DIIS solution               ....       0.139 sec  (  3.2%)
SOSCF solution              ....       0.074 sec  (  1.7%)
Finished LeanSCF after   4.4 sec

Maximum memory used throughout the entire LEANSCF-calculation: 18.3 MB

-------------------------   --------------------
FINAL SINGLE POINT ENERGY      -342.385726769863
-------------------------   --------------------



           ************************************************************
           *        Program running with 20 parallel MPI-processes    *
           *              working on a common directory               *
           ************************************************************
------------------------------------------------------------------------------
                         ORCA SCF GRADIENT CALCULATION
------------------------------------------------------------------------------

Nuc. rep. gradient        (SHARK) ... done (  0.0 sec)
HCore & Overlap gradient  (SHARK) ... done (  0.0 sec)
Split-RIJ-J gradient      (SHARK) ... done (  0.1 sec)
COSX-gradient                     ... done (  1.3 sec)
XC gradient                       ... done (  0.2 sec)
CPCM gradient                     ... done (  0.2 sec)

------------------
CARTESIAN GRADIENT
------------------

   1   O   :   -0.025925537    0.013685676    0.000777514
   2   O   :   -0.025968454   -0.013680549   -0.000750643
   3   O   :    0.039543512    0.000015665    0.000074153
   4   C   :    0.023820317   -0.010367348   -0.005522166
   5   C   :    0.023850460    0.010353305    0.005554139
   6   C   :   -0.024105413   -0.000006270   -0.000119160
   7   H   :   -0.005270475   -0.000331885   -0.000737653
   8   H   :   -0.000330646    0.000469293    0.001585570
   9   H   :   -0.005284631    0.000330784    0.000754631
  10   H   :   -0.000329131   -0.000468671   -0.001616386

Difference to translation invariance:
           :    0.0000000000   -0.0000000000   -0.0000000000

Difference to rotation invariance:
           :   -0.0003837104    0.0000017287   -0.0000001601

Norm of the Cartesian gradient     ...    0.0730889032
RMS gradient                       ...    0.0133441470
MAX gradient                       ...    0.0395435116

-------
TIMINGS
-------

Total SCF gradient time     ....        1.803 sec

Densities                   ....       0.001 sec  (  0.0%)
One electron gradient       ....       0.014 sec  (  0.8%)
RI-J Coulomb gradient       ....       0.125 sec  (  6.9%)
COSX gradient               ....       1.328 sec  ( 73.6%)
XC gradient                 ....       0.162 sec  (  9.0%)
CPCM gradient               ....       0.172 sec  (  9.5%)
   A-Matrix (El+Nuc)        ....       0.028 sec  (  1.5%)
   Potential                ....       0.144 sec  (  8.0%)

Maximum memory used throughout the entire SCFGRAD-calculation: 23.0 MB
------------------------------------------------------------------------------
                         ORCA GEOMETRY RELAXATION STEP
------------------------------------------------------------------------------

Reading the OPT-File                    .... done
Getting information on internals        .... done
Copying old internal coords+grads       .... done
Making the new internal coordinates     .... (2022 redundants) done
Validating the new internal coordinates .... (2022 redundants) done
Calculating the B-matrix                .... done
Calculating the G,G- and P matrices     .... done
Transforming gradient to internals      .... done
Projecting the internal gradient        .... done
Number of atoms                         ....  10
Number of internal coordinates          ....  43
Current Energy                          ....  -342.385726770 Eh
Current gradient norm                   ....     0.073088903 Eh/bohr
Maximum allowed component of the step   ....  0.300
Current trust radius                    ....  0.300
Evaluating the initial hessian          ....  (Almloef) done
Projecting the Hessian                  .... done
Forming the augmented Hessian           .... done
Diagonalizing the augmented Hessian     .... done
Last element of RFO vector              ....  0.988256391
Lowest eigenvalues of augmented Hessian:
 -0.005040703  0.020928315  0.024535706  0.026882767  0.104056374
Length of the computed step             ....  0.154620598
The final length of the internal step   ....  0.154620598
Converting the step to Cartesian space:
 Initial RMS(Int)=    0.0235794201
Transforming coordinates:
 Iter   0:  RMS(Cart)=    0.0247308615 RMS(Int)=    0.0236294675
done
Storing new coordinates                 .... done

                                .--------------------.
          ----------------------|Geometry convergence|-------------------------
          Item                value                   Tolerance       Converged
          ---------------------------------------------------------------------
          RMS gradient        0.0083402488            0.0000300000      NO
          MAX gradient        0.0395435477            0.0001000000      NO
          RMS step            0.0235794201            0.0006000000      NO
          MAX step            0.0613969765            0.0010000000      NO
          ........................................................
          Max(Bonds)      0.0201      Max(Angles)    1.13
          Max(Dihed)        3.52      Max(Improp)    0.00
          ---------------------------------------------------------------------

The optimization has not yet converged - more geometry cycles are needed


    ---------------------------------------------------------------------------
                         Redundant Internal Coordinates
                            (Angstroem and degrees)

        Definition                    Value    dE/dq     Step     New-Value
    ----------------------------------------------------------------------------
     1. B(C   3,O   0)                1.4199 -0.016911  0.0190    1.4389   
     2. B(C   4,C   3)                1.4951 -0.009534  0.0141    1.5093   
     3. B(C   4,O   1)                1.4199 -0.016855  0.0189    1.4388   
     4. B(C   5,O   2)                1.2219  0.039544 -0.0201    1.2018   
     5. B(C   5,O   1)                1.3682  0.014483 -0.0146    1.3536   
     6. B(C   5,O   0)                1.3682  0.014409 -0.0145    1.3537   
     7. B(H   6,C   3)                1.0932  0.003655 -0.0054    1.0878   
     8. B(H   7,C   3)                1.0950  0.001686 -0.0025    1.0926   
     9. B(H   8,C   4)                1.0932  0.003673 -0.0054    1.0878   
    10. B(H   9,C   4)                1.0951  0.001715 -0.0025    1.0926   
    11. A(C   3,O   0,C   5)          107.01 -0.005623    1.13    108.15   
    12. A(C   4,O   1,C   5)          107.02 -0.005460    1.10    108.12   
    13. A(O   0,C   3,H   6)          110.97 -0.002237   -0.51    110.46   
    14. A(O   0,C   3,H   7)          108.48  0.000476   -0.06    108.42   
    15. A(O   0,C   3,C   4)          102.87  0.007225   -0.68    102.19   
    16. A(C   4,C   3,H   7)          112.48 -0.001807    0.03    112.51   
    17. A(H   6,C   3,H   7)          109.22  0.000157    0.36    109.58   
    18. A(C   4,C   3,H   6)          112.63 -0.003456    0.76    113.39   
    19. A(C   3,C   4,H   8)          112.63 -0.003193    0.70    113.33   
    20. A(O   1,C   4,H   8)          110.97 -0.002274   -0.47    110.50   
    21. A(O   1,C   4,C   3)          102.87  0.006926   -0.61    102.26   
    22. A(H   8,C   4,H   9)          109.22  0.000724    0.20    109.42   
    23. A(C   3,C   4,H   9)          112.48 -0.001605    0.01    112.48   
    24. A(O   1,C   4,H   9)          108.48 -0.000327    0.10    108.58   
    25. A(O   1,C   5,O   2)          124.68  0.001623   -0.08    124.60   
    26. A(O   0,C   5,O   2)          124.68  0.001599   -0.08    124.60   
    27. A(O   0,C   5,O   1)          110.64 -0.003222    0.16    110.80   
    28. D(C   4,C   3,O   0,C   5)    -25.33  0.000682    1.27    -24.06   
    29. D(H   6,C   3,O   0,C   5)   -146.01  0.001660    1.02   -144.99   
    30. D(H   7,C   3,O   0,C   5)     94.00  0.002521    0.93     94.93   
    31. D(H   8,C   4,C   3,H   7)     33.73  0.000539   -2.43     31.30   
    32. D(H   9,C   4,O   1,C   5)     94.02  0.002319    1.04     95.06   
    33. D(O   1,C   4,C   3,O   0)     30.70  0.004518   -2.29     28.41   
    34. D(H   8,C   4,O   1,C   5)   -145.98  0.001622    1.06   -144.93   
    35. D(O   1,C   4,C   3,H   7)    -85.81  0.000628   -1.84    -87.65   
    36. D(H   8,C   4,C   3,O   0)    150.24  0.004429   -2.88    147.36   
    37. D(H   8,C   4,C   3,H   6)    -90.23  0.004435   -3.52    -93.75   
    38. D(O   1,C   4,C   3,H   6)    150.24  0.004524   -2.93    147.30   
    39. D(C   3,C   4,O   1,C   5)    -25.30  0.000761    1.29    -24.01   
    40. D(O   0,C   5,O   1,C   4)     10.31 -0.000550   -0.50      9.81   
    41. D(O   2,C   5,O   0,C   3)   -169.61 -0.000483   -0.56   -170.17   
    42. D(O   1,C   5,O   0,C   3)     10.35 -0.000518   -0.44      9.91   
    43. D(O   2,C   5,O   1,C   4)   -169.73 -0.000585   -0.38   -170.11   
    ----------------------------------------------------------------------------

Geometry step timings:
Preparation and reading OPT file:      0.000 s ( 8.468 %)
Internal coordinates            :      0.000 s ( 0.806 %)
B/P matrices and projection     :      0.000 s (11.794 %)
Hessian update/contruction      :      0.001 s (29.738 %)
Making the step                 :      0.000 s ( 9.325 %)
Converting the step to Cartesian:      0.000 s ( 1.815 %)
Storing new data                :      0.000 s (11.341 %)
Checking convergence            :      0.000 s ( 0.101 %)
Final printing                  :      0.001 s (26.159 %)
Total time                      :      0.002 s

Time for energy+gradient        :      9.320 s
Time for complete geometry iter :     10.146 s

         *************************************************************
         *                GEOMETRY OPTIMIZATION CYCLE   2            *
         *************************************************************
---------------------------------
CARTESIAN COORDINATES (ANGSTROEM)
---------------------------------
  O     -0.000630    1.109994   -0.093292
  O     -0.000257   -1.110362    0.093200
  O      1.970142    0.000111    0.000028
  C     -1.363941    0.734571    0.173224
  C     -1.363382   -0.734494   -0.172954
  C      0.768310   -0.000035    0.000510
  H     -2.046238    1.321959   -0.437338
  H     -1.571423    0.914871    1.230640
  H     -2.046360   -1.321303    0.437406
  H     -1.574221   -0.914712   -1.229723

----------------------------
CARTESIAN COORDINATES (A.U.)
----------------------------
  NO LB      ZA    FRAG     MASS         X           Y           Z
   0 O     8.0000    0    15.999   -0.001191    2.097584   -0.176296
   1 O     8.0000    0    15.999   -0.000486   -2.098280    0.176123
   2 O     8.0000    0    15.999    3.723029    0.000209    0.000052
   3 C     6.0000    0    12.011   -2.577474    1.388139    0.327345
   4 C     6.0000    0    12.011   -2.576418   -1.387992   -0.326835
   5 C     6.0000    0    12.011    1.451896   -0.000066    0.000964
   6 H     1.0000    0     1.008   -3.866830    2.498140   -0.826450
   7 H     1.0000    0     1.008   -2.969560    1.728855    2.325572
   8 H     1.0000    0     1.008   -3.867060   -2.496901    0.826578
   9 H     1.0000    0     1.008   -2.974847   -1.728554   -2.323840

--------------------------------
INTERNAL COORDINATES (ANGSTROEM)
--------------------------------
 O      0   0   0     0.000000000000     0.00000000     0.00000000
 O      1   0   0     2.228173871687     0.00000000     0.00000000
 O      2   1   0     2.263692436362    60.51893024     0.00000000
 C      1   2   3     1.438954028129    74.01847767   189.74826055
 C      2   1   3     1.438827519151    73.98096247   189.72855720
 C      3   2   1     1.201832192645    29.48183334     0.05115619
 H      4   1   2     1.087814339716   110.45140883   220.84930235
 H      4   1   2     1.092559434068   108.42871830   100.77497664
 H      5   2   1     1.087815736027   110.49351575   220.85235320
 H      5   2   1     1.092562930322   108.58148789   100.83848114

---------------------------
INTERNAL COORDINATES (A.U.)
---------------------------
 O      0   0   0     0.000000000000     0.00000000     0.00000000
 O      1   0   0     4.210638396248     0.00000000     0.00000000
 O      2   1   0     4.277758756154    60.51893024     0.00000000
 C      1   2   3     2.719229032466    74.01847767   189.74826055
 C      2   1   3     2.718989965144    73.98096247   189.72855720
 C      3   2   1     2.271133703030    29.48183334     0.05115619
 H      4   1   2     2.055671186616   110.45140883   220.84930235
 H      4   1   2     2.064638115420   108.42871830   100.77497664
 H      5   2   1     2.055673825262   110.49351575   220.85235320
 H      5   2   1     2.064644722383   108.58148789   100.83848114



           ************************************************************
           *        Program running with 20 parallel MPI-processes    *
           *              working on a common directory               *
           ************************************************************
------------------------------------------------------------------------------
                   ___                                                        
                  /   \      - P O W E R E D   B Y -                         
                 /     \                                                     
                 |  |  |   _    _      __       _____    __    __             
                 |  |  |  | |  | |    /  \     |  _  \  |  |  /  |          
                  \  \/   | |  | |   /    \    | | | |  |  | /  /          
                 / \  \   | |__| |  /  /\  \   | |_| |  |  |/  /          
                |  |  |   |  __  | /  /__\  \  |    /   |      \           
                |  |  |   | |  | | |   __   |  |    \   |  |\   \          
                \     /   | |  | | |  |  |  |  | |\  \  |  | \   \       
                 \___/    |_|  |_| |__|  |__|  |_| \__\ |__|  \__/        
                                                                              
                      - O R C A' S   B I G   F R I E N D -                    
                                      &                                       
                       - I N T E G R A L  F E E D E R -                       
                                                                              
 v1 FN, 2020, v2 2021, v3 2022-2024                                           
------------------------------------------------------------------------------


----------------------
SHARK INTEGRAL PACKAGE
----------------------

Number of atoms                             ...     10
Number of basis functions                   ...    210
Number of shells                            ...     82
Maximum angular momentum                    ...      3
Integral batch strategy                     ... SHARK/LIBINT Hybrid
RI-J (if used) integral strategy            ... SPLIT-RIJ (Revised 2003 algorithm where possible)
Printlevel                                  ...      1
Contraction scheme used                     ... SEGMENTED contraction
Prescreening option                         ... SCHWARTZ
   Thresh                                   ... 2.500e-11
   Tcut                                     ... 2.500e-12
   Tpresel                                  ... 2.500e-12 
Coulomb Range Separation                    ... NOT USED
Exchange Range Separation                   ... NOT USED
Multipole approximations                    ... NOT USED
Finite Nucleus Model                        ... NOT USED
CABS basis                                  ... NOT available
Auxiliary Coulomb fitting basis             ... AVAILABLE
   # of basis functions in Aux-J            ...    338
   # of shells in Aux-J                     ...    110
   Maximum angular momentum in Aux-J        ...      4
Auxiliary J/K fitting basis                 ... NOT available
Auxiliary Correlation fitting basis         ... NOT available
Auxiliary 'external' fitting basis          ... NOT available

Checking pre-screening integrals            ... done (  0.0 sec) Dimension = 82
Check shell pair data                       ... done (  0.0 sec)
Shell pair information
Shell pair cut-off parameter TPreSel        ...   2.5e-12
Total number of shell pairs                 ...      3403
Shell pairs after pre-screening             ...      3269
Total number of primitive shell pairs       ...     10584
Primitive shell pairs kept                  ...      8007
          la=0 lb=0:    831 shell pairs
          la=1 lb=0:    900 shell pairs
          la=1 lb=1:    251 shell pairs
          la=2 lb=0:    484 shell pairs
          la=2 lb=1:    260 shell pairs
          la=2 lb=2:     78 shell pairs
          la=3 lb=0:    242 shell pairs
          la=3 lb=1:    130 shell pairs
          la=3 lb=2:     72 shell pairs
          la=3 lb=3:     21 shell pairs

Calculating one electron integrals          ... done (  0.0 sec)
Calculating RI/J V-Matrix + Cholesky decomp.... done (  0.0 sec)
Calculating Nuclear repulsion               ... done (  0.0 sec) ENN=    246.715193275521 Eh

Diagonalization of the overlap matrix:
Smallest eigenvalue                        ... 3.854e-04
Time for diagonalization                   ...    0.003 sec
Threshold for overlap eigenvalues          ... 1.000e-07
Number of eigenvalues below threshold      ... 0
Time for construction of square roots      ...    0.002 sec
Total time needed                          ...    0.008 sec

-------------------
DFT GRID GENERATION
-------------------

General Integration Accuracy     IntAcc      ... 4.388
Radial Grid Type                 RadialGrid  ... OptM3 with GC (2021)
Angular Grid (max. ang.)         AngularGrid ... 4 (Lebedev-302)
Angular grid pruning method      GridPruning ... 4 (adaptive)
Weight generation scheme         WeightScheme... mBecke (2022)
Basis function cutoff            BFCut       ... 1.0000e-11
Integration weight cutoff        WCut        ... 1.0000e-14
Partially contracted basis set               ... off
Rotationally invariant grid construction     ... off
Angular grids for H and He will be reduced by one unit

Total number of grid points                  ...    49294
Total number of batches                      ...      776
Average number of points per batch           ...       63
Average number of grid points per atom       ...     4929

--------------------
COSX GRID GENERATION
--------------------

GRIDX 1
-------
General Integration Accuracy     IntAcc      ... 3.816
Radial Grid Type                 RadialGrid  ... OptM3 with GC (2021)
Angular Grid (max. ang.)         AngularGrid ... 1 (Lebedev-50)
Angular grid pruning method      GridPruning ... 4 (adaptive)
Weight generation scheme         WeightScheme... mBecke (2022)
Basis function cutoff            BFCut       ... 1.0000e-11
Integration weight cutoff        WCut        ... 1.0000e-14
Partially contracted basis set               ... on
Rotationally invariant grid construction     ... off
Angular grids for H and He will be reduced by one unit

Total number of grid points                  ...     6273
Total number of batches                      ...       56
Average number of points per batch           ...      112
Average number of grid points per atom       ...      627
UseSFitting                                  ... on

GRIDX 2
-------
General Integration Accuracy     IntAcc      ... 4.020
Radial Grid Type                 RadialGrid  ... OptM3 with GC (2021)
Angular Grid (max. ang.)         AngularGrid ... 2 (Lebedev-110)
Angular grid pruning method      GridPruning ... 4 (adaptive)
Weight generation scheme         WeightScheme... mBecke (2022)
Basis function cutoff            BFCut       ... 1.0000e-11
Integration weight cutoff        WCut        ... 1.0000e-14
Partially contracted basis set               ... on
Rotationally invariant grid construction     ... off
Angular grids for H and He will be reduced by one unit

Total number of grid points                  ...    14047
Total number of batches                      ...      116
Average number of points per batch           ...      121
Average number of grid points per atom       ...     1405
UseSFitting                                  ... on

GRIDX 3
-------
General Integration Accuracy     IntAcc      ... 4.338
Radial Grid Type                 RadialGrid  ... OptM3 with GC (2021)
Angular Grid (max. ang.)         AngularGrid ... 3 (Lebedev-194)
Angular grid pruning method      GridPruning ... 4 (adaptive)
Weight generation scheme         WeightScheme... mBecke (2022)
Basis function cutoff            BFCut       ... 1.0000e-11
Integration weight cutoff        WCut        ... 1.0000e-14
Partially contracted basis set               ... on
Rotationally invariant grid construction     ... off
Angular grids for H and He will be reduced by one unit

Total number of grid points                  ...    31022
Total number of batches                      ...      246
Average number of points per batch           ...      126
Average number of grid points per atom       ...     3102
UseSFitting                                  ... on
Initializing property integral containers    ... done (  0.0 sec)

SHARK setup successfully completed in   0.5 seconds

Maximum memory used throughout the entire STARTUP-calculation: 17.0 MB


           ************************************************************
           *        Program running with 20 parallel MPI-processes    *
           *              working on a common directory               *
           ************************************************************
Occupation numbers will be reassigned to an Aufbau configuration
             **** ENERGY FILE WAS UPDATED (EC.en.tmp) ****
Finished Guess after   0.5 sec
[...]
      py      :     1.491389
      dz2     :     0.004505  d :     0.040101
      dxz     :     0.005394
      dyz     :     0.005550
      dx2y2   :     0.011028
      dxy     :     0.013624
      f0      :     0.000289  f :     0.002059
      f+1     :     0.000343
      f-1     :     0.000229
      f+2     :     0.000123
      f-2     :     0.000178
      f+3     :     0.000471
      f-3     :     0.000427

  1 O s       :     3.772603  s :     3.772603
      pz      :     1.724293  p :     4.458446
      px      :     1.242712
      py      :     1.491441
      dz2     :     0.004504  d :     0.040100
      dxz     :     0.005394
      dyz     :     0.005550
      dx2y2   :     0.011024
      dxy     :     0.013627
      f0      :     0.000289  f :     0.002059
      f+1     :     0.000343
      f-1     :     0.000229
      f+2     :     0.000123
      f-2     :     0.000178
      f+3     :     0.000471
      f-3     :     0.000427

  2 O s       :     3.782254  s :     3.782254
      pz      :     1.489921  p :     4.571207
      px      :     1.321370
      py      :     1.759915
      dz2     :     0.002492  d :     0.028691
      dxz     :     0.010774
      dyz     :     0.000108
      dx2y2   :     0.007797
      dxy     :     0.007520
      f0      :     0.000214  f :     0.001888
      f+1     :     0.000187
      f-1     :     0.000026
      f+2     :     0.000467
      f-2     :     0.000017
      f+3     :     0.000410
      f-3     :     0.000566

  3 C s       :     3.228035  s :     3.228035
      pz      :     1.066624  p :     2.681105
      px      :     0.679885
      py      :     0.934596
      dz2     :     0.012080  d :     0.099071
      dxz     :     0.028259
      dyz     :     0.014118
      dx2y2   :     0.018406
      dxy     :     0.026207
      f0      :     0.001521  f :     0.009641
      f+1     :     0.001068
      f-1     :     0.000767
      f+2     :     0.001573
      f-2     :     0.000620
      f+3     :     0.002294
      f-3     :     0.001799

  4 C s       :     3.228043  s :     3.228043
      pz      :     1.066658  p :     2.681106
      px      :     0.679899
      py      :     0.934549
      dz2     :     0.012075  d :     0.099069
      dxz     :     0.028262
      dyz     :     0.014119
      dx2y2   :     0.018406
      dxy     :     0.026207
      f0      :     0.001520  f :     0.009640
      f+1     :     0.001068
      f-1     :     0.000768
      f+2     :     0.001573
      f-2     :     0.000620
      f+3     :     0.002294
      f-3     :     0.001798

  5 C s       :     2.991641  s :     2.991641
      pz      :     0.782770  p :     2.286320
      px      :     0.761379
      py      :     0.742170
      dz2     :     0.010121  d :     0.289527
      dxz     :     0.075064
      dyz     :     0.048638
      dx2y2   :     0.060405
      dxy     :     0.095299
      f0      :     0.003590  f :     0.032972
      f+1     :     0.001938
      f-1     :     0.001372
      f+2     :     0.003426
      f-2     :     0.004255
      f+3     :     0.005465
      f-3     :     0.012926

  6 H s       :     0.831808  s :     0.831808
      pz      :     0.007724  p :     0.021078
      px      :     0.006089
      py      :     0.007265

  7 H s       :     0.842694  s :     0.842694
      pz      :     0.013046  p :     0.021110
      px      :     0.003715
      py      :     0.004349

  8 H s       :     0.831802  s :     0.831802
      pz      :     0.007727  p :     0.021078
      px      :     0.006088
      py      :     0.007264

  9 H s       :     0.842686  s :     0.842686
      pz      :     0.013045  p :     0.021110
      px      :     0.003717
      py      :     0.004349



                     *******************************
                     * LOEWDIN POPULATION ANALYSIS *
                     *******************************

----------------------
LOEWDIN ATOMIC CHARGES
----------------------
   0 O :    0.247796
   1 O :    0.247796
   2 O :    0.046539
   3 C :   -0.231529
   4 C :   -0.231493
   5 C :   -0.629731
   6 H :    0.139516
   7 H :    0.135794
   8 H :    0.139517
   9 H :    0.135795

-------------------------------
LOEWDIN REDUCED ORBITAL CHARGES
-------------------------------
  0 O s       :     3.273579  s :     3.273579
      pz      :     1.590402  p :     4.367912
      px      :     1.277021
      py      :     1.500489
      dz2     :     0.011126  d :     0.103446
      dxz     :     0.016044
      dyz     :     0.008128
      dx2y2   :     0.030345
      dxy     :     0.037803
      f0      :     0.000605  f :     0.007267
      f+1     :     0.000752
      f-1     :     0.000500
      f+2     :     0.000561
      f-2     :     0.000641
      f+3     :     0.001996
      f-3     :     0.002212

  1 O s       :     3.273586  s :     3.273586
      pz      :     1.590417  p :     4.367908
      px      :     1.276960
      py      :     1.500531
      dz2     :     0.011125  d :     0.103443
      dxz     :     0.016044
      dyz     :     0.008126
      dx2y2   :     0.030339
      dxy     :     0.037811
      f0      :     0.000605  f :     0.007267
      f+1     :     0.000752
      f-1     :     0.000500
      f+2     :     0.000561
      f-2     :     0.000641
      f+3     :     0.001997
      f-3     :     0.002211

  2 O s       :     3.402995  s :     3.402995
      pz      :     1.389265  p :     4.480216
      px      :     1.480690
      py      :     1.610261
      dz2     :     0.008279  d :     0.063900
      dxz     :     0.015106
      dyz     :     0.000178
      dx2y2   :     0.025854
      dxy     :     0.014483
      f0      :     0.000529  f :     0.006350
      f+1     :     0.001099
      f-1     :     0.000092
      f+2     :     0.000937
      f-2     :     0.000074
      f+3     :     0.002097
      f-3     :     0.001522

  3 C s       :     2.817384  s :     2.817384
      pz      :     1.077465  p :     2.889100
      px      :     0.780798
      py      :     1.030837
      dz2     :     0.076024  d :     0.458549
      dxz     :     0.100969
      dyz     :     0.066238
      dx2y2   :     0.106862
      dxy     :     0.108456
      f0      :     0.007905  f :     0.066496
      f+1     :     0.006640
      f-1     :     0.004684
      f+2     :     0.010205
      f-2     :     0.006434
      f+3     :     0.015372
      f-3     :     0.015256

  4 C s       :     2.817395  s :     2.817395
      pz      :     1.077488  p :     2.889084
      px      :     0.780791
      py      :     1.030805
      dz2     :     0.075988  d :     0.458524
      dxz     :     0.100989
      dyz     :     0.066242
      dx2y2   :     0.106853
      dxy     :     0.108451
      f0      :     0.007904  f :     0.066491
      f+1     :     0.006639
      f-1     :     0.004687
      f+2     :     0.010197
      f-2     :     0.006433
      f+3     :     0.015374
      f-3     :     0.015256

  5 C s       :     2.738309  s :     2.738309
      pz      :     0.767898  p :     2.600991
      px      :     0.959343
      py      :     0.873749
      dz2     :     0.079062  d :     1.092080
      dxz     :     0.203651
      dyz     :     0.141031
      dx2y2   :     0.285526
      dxy     :     0.382811
      f0      :     0.011181  f :     0.198352
      f+1     :     0.013438
      f-1     :     0.011173
      f+2     :     0.024613
      f-2     :     0.026139
      f+3     :     0.035282
      f-3     :     0.076526

  6 H s       :     0.799728  s :     0.799728
      pz      :     0.024149  p :     0.060755
      px      :     0.016625
      py      :     0.019982

  7 H s       :     0.803577  s :     0.803577
      pz      :     0.037235  p :     0.060628
      px      :     0.010661
      py      :     0.012732

  8 H s       :     0.799727  s :     0.799727
      pz      :     0.024157  p :     0.060756
      px      :     0.016620
      py      :     0.019978

  9 H s       :     0.803576  s :     0.803576
      pz      :     0.037231  p :     0.060629
      px      :     0.010667
      py      :     0.012731



                      *****************************
                      * MAYER POPULATION ANALYSIS *
                      *****************************

  NA   - Mulliken gross atomic population
  ZA   - Total nuclear charge
  QA   - Mulliken gross atomic charge
  VA   - Mayer's total valence
  BVA  - Mayer's bonded valence
  FA   - Mayer's free valence

  ATOM       NA         ZA         QA         VA         BVA        FA
  0 O      8.2732     8.0000    -0.2732     2.1000     2.1000    -0.0000
  1 O      8.2732     8.0000    -0.2732     2.1000     2.1000     0.0000
  2 O      8.3840     8.0000    -0.3840     2.1253     2.1253    -0.0000
  3 C      6.0179     6.0000    -0.0179     3.8352     3.8352     0.0000
  4 C      6.0179     6.0000    -0.0179     3.8352     3.8352    -0.0000
  5 C      5.6005     6.0000     0.3995     4.5252     4.5252    -0.0000
  6 H      0.8529     1.0000     0.1471     0.9580     0.9580     0.0000
  7 H      0.8638     1.0000     0.1362     0.9601     0.9601     0.0000
  8 H      0.8529     1.0000     0.1471     0.9580     0.9580     0.0000
  9 H      0.8638     1.0000     0.1362     0.9601     0.9601    -0.0000

  Mayer bond orders larger than 0.100000
B(  0-O ,  3-C ) :   0.8913 B(  0-O ,  5-C ) :   1.1925 B(  1-O ,  4-C ) :   0.8913 
B(  1-O ,  5-C ) :   1.1925 B(  2-O ,  5-C ) :   2.0717 B(  3-C ,  4-C ) :   0.9948 
B(  3-C ,  6-H ) :   0.9558 B(  3-C ,  7-H ) :   0.9588 B(  4-C ,  8-H ) :   0.9558 
B(  4-C ,  9-H ) :   0.9588 

-------
TIMINGS
-------

Total SCF time: 0 days 0 hours 0 min 1 sec 

Total time                  ....       1.892 sec
Sum of individual times     ....       1.860 sec  ( 98.3%)

SCF preparation             ....       0.556 sec  ( 29.4%)
Fock matrix formation       ....       1.178 sec  ( 62.3%)
  Startup                   ....       0.012 sec  (  1.0% of F)
  Split-RI-J                ....       0.063 sec  (  5.4% of F)
  Chain of spheres X        ....       0.861 sec  ( 73.1% of F)
  XC integration            ....       0.141 sec  ( 12.0% of F)
    XC Preparation          ....       0.000 sec  (  0.0% of XC)
    Basis function eval.    ....       0.026 sec  ( 18.3% of XC)
    Density eval.           ....       0.027 sec  ( 19.0% of XC)
    XC-Functional eval.     ....       0.004 sec  (  3.1% of XC)
    XC-Potential eval.      ....       0.038 sec  ( 26.7% of XC)
  CPCM terms                ....       0.083 sec  (  7.1% of F)
Diagonalization             ....       0.000 sec  (  0.0%)
Density matrix formation    ....       0.012 sec  (  0.6%)
Total Energy calculation    ....       0.014 sec  (  0.7%)
Population analysis         ....       0.034 sec  (  1.8%)
Orbital Transformation      ....       0.013 sec  (  0.7%)
Orbital Orthonormalization  ....       0.000 sec  (  0.0%)
DIIS solution               ....       0.019 sec  (  1.0%)
SOSCF solution              ....       0.034 sec  (  1.8%)
Finished LeanSCF after   1.9 sec

Maximum memory used throughout the entire LEANSCF-calculation: 19.7 MB

-------------------------   --------------------
FINAL SINGLE POINT ENERGY      -342.390196953664
-------------------------   --------------------

                                *** OPTIMIZATION RUN DONE ***



           ************************************************************
           *        Program running with 20 parallel MPI-processes    *
           *              working on a common directory               *
           ************************************************************

------------------------------------------------------------------------------
                              ORCA PROPERTY CALCULATIONS
------------------------------------------------------------------------------

GBWName                                 ... EC.gbw
Number of atoms                         ...     10
Number of basis functions               ...    210
Max core memory                         ...   5000 MB

Electric properties:
Dipole moment                           ... YES
Quadrupole moment                       ...  NO
Static polarizability (Dipole/Dipole)   ...  NO
Static polarizability (Dipole/Quad.)    ...  NO
Static polarizability (Quad./Quad.)     ...  NO
Static polarizability (Velocity)        ...  NO

Atomic electric properties:
Dipole moment                           ...  NO
Quadrupole moment                       ...  NO
Static polarizability                   ...  NO

Choice of electric origin               ... Center of mass
Position of electric origin             ...     0.025638    -0.000043     0.000073

General magnetic properties:
Magnetizability                         ...  NO

EPR properties:
g-Tensor (aka g-matrix)                 ...  NO
Zero-Field splitting spin-orbit         ...  NO
Zero-field splitting spin-spin          ...  NO
Hyperfine couplings                     ...  NO (   0 nuclei)
Quadrupole couplings                    ...  NO (   0 nuclei)
Contact density                         ...  NO (   0 nuclei)

NMR properties:
Chemical shifts                         ...  NO (   0 nuclei)
Spin-rotation constants                 ...  NO (   0 nuclei)
Spin-spin couplings                     ...  NO (   0 nuclei,    0 pairs)

Choice of magnetic origin               ... GIAO
Position of magnetic origin             ...     0.000000     0.000000     0.000000

Properties with geometric perturbations:
SCF Hessian                             ...  NO
IR spectrum                             ...  NO
VCD spectrum                            ...  NO
X-ray spectroscopy properties:
SCF XES/XAS/RIXS spectra                ...  NO


-------------
DIPOLE MOMENT
-------------

Method             : SCF
Type of density    : Electron Density
Multiplicity       :   1
Irrep              :   0
Energy             :  -342.3901969536641445 Eh
Relativity type    : 
Basis              : AO
                                X                 Y                 Z
Electronic contribution:      3.919292917      -0.000484223      -0.000743870
Nuclear contribution   :     -6.840073104       0.000768499       0.001227400
                        -----------------------------------------
Total Dipole Moment    :     -2.920780187       0.000284276       0.000483530
                        -----------------------------------------
Magnitude (a.u.)       :      2.920780241
Magnitude (Debye)      :      7.424033374



--------------------
Rotational spectrum 
--------------------
 
Rotational constants in cm-1:             0.270697             0.127344             0.090052 
Rotational constants in MHz :          8115.296977          3817.687662          2699.689788 

Dipole components along the rotational axes: 
x,y,z [a.u.] :    -2.920780    -0.000047    -0.000022 
x,y,z [Debye]:    -7.424033    -0.000121    -0.000055 

 

Dipole moment calculation done in   0.0 sec 

Maximum memory used throughout the entire PROP-calculation: 10.4 MB

--------------------------------
SUGGESTED CITATIONS FOR THIS RUN
--------------------------------

Below you find a list of papers that are relevant to this ORCA run
We neither can nor want to force you to cite these papers, but we appreciate if you do
You receive ORCA, which is the product of decades of hard work by many enthusiastic individuals, for free
The only thing we kindly ask in return is that you cite our papers,
We deeply appreciate it, if you show your appreciation for ORCA by not just citing the generic ORCA reference.

Please note that relegating all ORCA citations to the supporting information does *not* help us.
SI sections are not indexed - citations you put there will not count into any citation statistics
But we need these citations in order to attract the funding resources that allow us to do what we are doing

Therefore, if you are a happy ORCA user, please consider citing a few of the papers listed below in the main body of your paper

In addition to the list printed below, the program has created the file EC.bibtex that contains the list in bibtex format
You can import this file easily into all common literature databanks and citation aid programs


List of essential papers. We consider these as the minimum necessary citations

  1. Neese,F.
     Software update: the ORCA program system, version 5.0
     WIRES Comput. Molec. Sci., 2022 12(1)e1606
     doi.org/10.1002/wcms.1606

List of papers to cite with high priority. The work reported in these papers was absolutely
necessary for this run to complete.
Our perspective: the developers of density functionals and basis sets usually get cited in chemistry papers
Good! But without the algorithms to do something with them, the functionals or basis sets would not do anything.
Hence, in our opinion, the algorithm design and method developments papers are equally worthy of getting cited

  1. Neese,F.
     An improvement of the resolution of the identity approximation for the formation of the Coulomb matrix
     J. Comp. Chem., 2003 24(14)1740-1747
     doi.org/10.1002/jcc.10318
  2. Neese,F.; Wennmohs,F.; Hansen,A.; Becker,U.
     Efficient, approximate and parallel Hartree-Fock and hybrid DFT calculations. A 'chain-of-spheres' algorithm for the Hartree-Fock exchange
     Chem. Phys., 2009 356(1-3)98-109
     doi.org/10.1016/j.chemphys.2008.10.036
  3. Garcia-Rates,M.; Neese,F.
     Effect of the Solute Cavity on the Solvation Energy and its Derivatives within the Framework of the Gaussian Charge Scheme
     J. Comput. Chem., 2020 41 922-939
     doi.org/10.1002/jcc.26139
  4. Helmich-Paris,B.; de Souza,B.; Neese,F.; Izsák,R.
     An improved chain of spheres for exchange algorithm
     J. Chem. Phys., 2021 155 104109
     doi.org/doi: 10.1063/5.0058766.
  5. Neese,F.
     The SHARK Integral Generation and Digestion System
     J. Comp. Chem., 2022  1-16
     doi.org/10.1002/jcc.26942

List of suggested additional citations. These are papers that are important in the 'surrounding' of 
of this run, or papers that preceded the highly important papers. If you like your results we are grateful for a citation.

  1. Izsak,R.; Neese,F.
     An overlap fitted chain of spheres exchange method
     J. Chem. Phys., 2011 135 144105
     doi.org/10.1063/1.3646921
  2. Izsak,R.; Hansen,A.; Neese,F.
     The resolution of identity and chain of spheres approximations for the LPNO-CCSD singles Fock term
     Molec. Phys., 2012 110 2413-2417
     doi.org/10.1080/00268976.2012.687466
  3. Neese,F.
     The ORCA program system
     WIRES Comput. Molec. Sci., 2012 2(1)73-78
     doi.org/10.1002/wcms.81
  4. Izsak,R.; Neese,F.; Klopper,W.
     Robust fitting techniques in the chain of spheres approximation to the Fock exchange: The role of the complementary space
     J. Chem. Phys., 2013 139 
     doi.org/10.1063/1.4819264
  5. Neese,F.
     Software update: the ORCA program system, version 4.0
     WIRES Comput. Molec. Sci., 2018 8(1)1-6
     doi.org/10.1002/wcms.1327
  6. Neese,F.; Wennmohs,F.; Becker,U.; Riplinger,C.
     The ORCA quantum chemistry program package
     J. Chem. Phys., 2020 152 Art. No. L224108
     doi.org/10.1063/5.0004608

List of optional additional citations

  1. Neese,F.
     Approximate second-order SCF convergence for spin unrestricted wavefunctions
     Chem. Phys. Lett., 2000 325(1-3)93-98
     doi.org/10.1016/s0009-2614(00)00662-x

Timings for individual modules:

Sum of individual times          ...       94.318 sec (=   1.572 min)
Startup calculation              ...       14.175 sec (=   0.236 min)  15.0 %
SCF iterations                   ...       50.510 sec (=   0.842 min)  53.6 %
Property calculations            ...        0.786 sec (=   0.013 min)   0.8 %
SCF Gradient evaluation          ...       28.776 sec (=   0.480 min)  30.5 %
Geometry relaxation              ...        0.071 sec (=   0.001 min)   0.1 %
                             ****ORCA TERMINATED NORMALLY****
TOTAL RUN TIME: 0 days 0 hours 1 minutes 43 seconds 466 msec
