
                                 *****************
                                 * O   R   C   A *
                                 *****************

                                            #,                                       
                                            ###                                      
                                            ####                                     
                                            #####                                    
                                            ######                                   
                                           ########,                                 
                                     ,,################,,,,,                         
                               ,,#################################,,                 
                          ,,##########################################,,             
                       ,#########################################, ''#####,          
                    ,#############################################,,   '####,        
                  ,##################################################,,,,####,       
                ,###########''''           ''''###############################       
              ,#####''   ,,,,##########,,,,          '''####'''          '####       
            ,##' ,,,,###########################,,,                        '##       
           ' ,,###''''                  '''############,,,                           
         ,,##''                                '''############,,,,        ,,,,,,###''
      ,#''                                            '''#######################'''  
     '                                                          ''''####''''         
             ,#######,   #######,   ,#######,      ##                                
            ,#'     '#,  ##    ##  ,#'     '#,    #''#        ,####,   ,####,        
            ##       ##  ##   ,#'  ##            #'  '#       #'       #'  '#        
            ##       ##  #######   ##           ,######,      #####,   #    #        
            '#,     ,#'  ##    ##  '#,     ,#' ,#      #,     #,   #   #,  ,#        
             '#######'   ##     ##  '#######'  #'      '#     '####' # '####'        



                #########################################################
                #                        -***-                          #
                #          Department of theory and spectroscopy        #
                #                                                       #
                #                      Frank Neese                      #
                #                                                       #
                #     Directorship, Architecture, Infrastructure        #
                #                    SHARK, DRIVERS                     #
                #        Core code/Algorithms in most modules           #
                #                                                       #
                #        Max Planck Institute fuer Kohlenforschung      #
                #                Kaiser Wilhelm Platz 1                 #
                #                 D-45470 Muelheim/Ruhr                 #
                #                      Germany                          #
                #                                                       #
                #                  All rights reserved                  #
                #                        -***-                          #
                #########################################################


                         Program Version 6.0.1  -  RELEASE   -


 With contributions from (in alphabetic order):
[Max-Planck-Institut fuer Kohlenforschung]                               
  Daniel Aravena         : Magnetic Suceptibility                        
  Michael Atanasov       : Ab Initio Ligand Field Theory (pilot matlab implementation)
  Alexander A. Auer      : GIAO ZORA, VPT2 properties, NMR spectrum      
  Ute Becker             : All parallelization in ORCA, NUMFREQ, NUMCALC 
  Giovanni Bistoni       : ED, misc. LED, open-shell LED, HFLD           
  Martin Brehm           : Molecular dynamics                            
  Dmytro Bykov           : pre 5.0 version of the SCF Hessian            
  Marcos Casanova-Páez   : Triplet and SCS-CIS(D). UHF-(DLPNO)-IP/EA/STEOM-CCSD. UHF-CVS-IP/STEOM-CCSD   
  Vijay G. Chilkuri      : MRCI spin determinant printing, contributions to CSF-ICE 
  Pauline Colinet        : FMM embedding                                 
  Dipayan Datta          : RHF DLPNO-CCSD density                        
  Achintya Kumar Dutta   : EOM-CC, STEOM-CC                              
  Nicolas Foglia         : Exact transition moments, OPA infrastructure, MCD improvements    
  Dmitry Ganyushin       : Spin-Orbit,Spin-Spin,Magnetic field MRCI      
  Miquel Garcia-Rates    : C-PCM and meta-GGA Hessian, CCSD/C-PCM, Gaussian charge scheme 
  Tiago L. C. Gouveia    : GS-ROHF, GS-ROCIS                             
  Yang Guo               : DLPNO-NEVPT2, F12-NEVPT2, CIM, IAO-localization        
  Andreas Hansen         : Spin unrestricted coupled pair/coupled cluster methods 
  Ingolf Harden          : AUTO-CI MPn and infrastructure                
  Benjamin Helmich-Paris : MC-RPA, TRAH-(SCF,CASSCF), AVAS, COSX integrals, SCF dyn. polar. 
  Lee Huntington         : MR-EOM, pCC                                   
  Robert Izsak           : Overlap fitted RIJCOSX, COSX-SCS-MP3, EOM     
  Riya Kayal             : Wick's Theorem for AUTO-CI, AUTO-CI UHF-CCSDT 
  Emily Kempfer          : AUTO-CI, RHF CISDT and CCSDT                  
  Christian Kollmar      : KDIIS, OOCD, Brueckner-CCSD(T), CCSD density, CASPT2, CASPT2-K, improved NEVPT2 
  Axel Koslowski         : Symmetry handling                             
  Simone Kossmann        : meta-GGA functionals, TD-DFT gradient, OOMP2, (MP2 Hessian; deprecated post 5.0) 
  Lucas Lang             : DCDCAS                                        
  Marvin Lechner         : AUTO-CI (C++ implementation), FIC-MRCC        
  Spencer Leger          : CASSCF response                               
  Dagmar Lenk            : GEPOL surface, SMD, ORCA-2-JSON               
  Dimitrios Liakos       : Extrapolation schemes; Compound Job, initial MDCI parallelization 
  Dimitrios Manganas     : Further ROCIS development; embedding schemes. LFT, Crystal Embedding 
  Dimitrios Pantazis     : SARC Basis sets                               
  Anastasios Papadopoulos: AUTO-CI, single reference methods and gradients 
  Taras Petrenko         : pre 6.0 DFT Hessian and TD-DFT gradient, (ASA, deprecated), ECA, 1-Electron XAS/XES, NRVS 
  Peter Pinski           : DLPNO-MP2, DLPNO-MP2 Gradient                 
  Christoph Reimann      : Effective Core Potentials                     
  Marius Retegan         : Local ZFS, SOC                                
  Christoph Riplinger    : Optimizer, TS searches, QM/MM, DLPNO-CCSD(T), (RO)-DLPNO pert. Triples 
  Michael Roemelt        : Original ROCIS implementation                 
  Masaaki Saitow         : Open-shell DLPNO-CCSD energy and density      
  Barbara Sandhoefer     : DKH picture change effects                    
  Kantharuban Sivalingam : CASSCF convergence/infrastructure, NEVPT2 and variants, FIC-MRCI 
  Bernardo de Souza      : ESD, SOC TD-DFT                               
  Georgi L. Stoychev     : AutoAux, RI-MP2 NMR, DLPNO-MP2 response, X2C  
  Van Anh Tran           : RI-MP2 g-tensors                              
  Willem Van den Heuvel  : Paramagnetic NMR                              
  Zikuan Wang            : NOTCH, Electric field optimization            
  Frank Wennmohs         : Technical directorship and infrastructure     
  Hang Xu                : AUTO-CI-Response properties                   
                                                                         
[FACCTs GmbH]                                                            
  Markus Bursch, Miquel Garcia-Rates, Christoph Riplinger, Bernardo de Souza, Georgi L. Stoychev 
                                                                 
  APM, Basis sets (HGBS, AHGBS, def-TZVP (Ac-Lr), def2-XVPD (La-Lu)), CI-OPT, improved COSX, DLPNO-Multilevel,           
  DOCKER, DRACO, updates on ESD, GOAT, IRC, LR-CPCM, MBIS, meta-GGA TD-DFT gradient, ML-optimized integration grids, 
  MM, NACMEs, nearIR, NEB, NEB-TS, NL-DFT gradient (VV10), 2- and 3-layer-ONIOM, interface openCOSMO-RS, QMMM,   
  Crystal-QMMM, SF, symmetry and pop. for TD-DFT, r2SCAN hybrids, SOLVATOR                                   
                                                                         
[Other institutions]                                                     
  V. Asgeirsson          : NEB                                           
  Christoph Bannwarth    : sTDA-DFT, sTD-DFT, PBEh-3c, B97-3c, D3        
  Sebastian Ehlert       : rSCAN, r2SCAN, r2SCAN-3c, D4, dhf basis sets  
  Marvin Friede          : D4 for Fr, Ra, Ac-Lr                          
  Lars Goerigk           : TD-DFT with DH, B97 family of functionals     
  Stefan Grimme          : VdW corrections, initial TS optimization, DFT functionals, gCP, sTDA/sTD-DF 
  Waldemar Hujo          : DFT-NL                                        
  H. Jonsson             : NEB                                           
  Holger Kruse           : gCP                                           
  Marcel Mueller         : wB97X-3c, vDZP basis set                      
  Hagen Neugebauer       : wr2SCAN                                       
  Tobias Risthaus        : range-separated hybrid DFT                    
  Lukas Wittmann         : regularized MP2, r2SCAN double-hybrids, wr2SCAN        
                                                                         
We gratefully acknowledge several colleagues who have allowed us to      
interface, adapt or use parts of their codes:                            
  Ed Valeev, F. Pavosevic, A. Kumar             : LibInt (2-el integral package), F12 methods 
  Garnet Chan, S. Sharma, J. Yang, R. Olivares  : DMRG                   
  Ulf Ekstrom                                   : XCFun DFT Library      
  Mihaly Kallay                                 : mrcc  (arbitrary order and MRCC methods)
  Frank Weinhold                                : gennbo (NPA and NBO analysis)           
  Simon Mueller                                 : openCOSMO-RS                            
  Christopher J. Cramer and Donald G. Truhlar   : smd solvation model                     
  S Lehtola, MJT Oliveira, MAL Marques          : LibXC Library                           
  Liviu Ungur et al                             : ANISO software                          


 Your calculation uses the libint2 library for the computation of 2-el integrals
 For citations please refer to: http://libint.valeyev.net

 Your ORCA version has been built with support for libXC version: 6.2.2
 For citations please refer to: https://libxc.gitlab.io

 This ORCA versions uses:
   CBLAS   interface :  Fast vector & matrix operations
   LAPACKE interface :  Fast linear algebra routines
   SCALAPACK package :  Parallel linear algebra routines
   Shared memory     :  Shared parallel matrices
   BLAS/LAPACK       :  OpenBLAS 0.3.27  USE64BITINT DYNAMIC_ARCH NO_AFFINITY SkylakeX SINGLE_THREADED
        Core in use  :  SkylakeX
   Copyright (c) 2011-2014, The OpenBLAS Project


NOTE: MaxCore=5000 MB was set to SCF,MP2,MDCI,CIPSI,MRCI and CIS
      => If you want to overwrite this, your respective input block should be placed after the MaxCore statement
Warning: RI is on but no J-basis has been assigned. Assigning Def2/J (nothing to worry about!)
================================================================================

----- Orbital basis set information -----
Your calculation utilizes the basis: def2-TZVP
   F. Weigend and R. Ahlrichs, Phys. Chem. Chem. Phys. 7, 3297 (2005).

----- AuxJ basis set information -----
Your calculation utilizes the auxiliary basis: def2/J
   F. Weigend, Phys. Chem. Chem. Phys. 8, 1057 (2006).

================================================================================
                                        WARNINGS
                       Please study these warnings very carefully!
================================================================================


WARNING: Geometry Optimization
  ===> : Switching off AutoStart
         For restart on a previous wavefunction, please use MOREAD

================================================================================
                                       INPUT FILE
================================================================================
NAME = honokiol3.inp
|  1> ! Opt B3LYP def2-TZVP TightSCF TightOpt
|  2> 
|  3> %maxcore 5000
|  4> 
|  5> %pal
|  6> nprocs 20
|  7> end
|  8> 
|  9> * xyz 0 1
| 10> O           1.59186812697637      1.35044825132001      2.43119315231142
| 11>   O          -3.68264411796929     -2.21010007588757      2.16576484184025
| 12>   C           1.28356903033526     -0.07924869309187      0.49158765550400
| 13>   C          -0.01786529323635     -0.62209219800717      0.95725554503819
| 14>   C          -2.34514388367706     -1.17286024634750      0.42523337943487
| 15>   C          -1.10689284922561     -0.64220773554692      0.08141007984413
| 16>   C           2.98336031960930      0.01640614041488     -1.26505406772867
| 17>   C           1.79187567598009     -0.47557445379749     -0.74583333983003
| 18>   C           2.01965827128694      0.85971420783189      1.23227188501744
| 19>   C          -0.20539384669791     -1.16135956779930      2.23495965874040
| 20>   C          -2.50031122200700     -1.70086629958993      1.71664732633398
| 21>   C          -3.48735848118849     -1.14414853856636     -0.57232070866895
| 22>   C           3.42099757479351     -0.41144643758957     -2.65389326077593
| 23>   C           3.70122503820962      0.92976528970288     -0.49596070112063
| 24>   C          -1.43207545679083     -1.69262147132196      2.60815034419785
| 25>   C           3.22551061054617      1.34826752600448      0.73980396274317
| 26>   C          -4.08294610165939     -2.49632136870478     -0.87062788566470
| 27>   C           2.75290540458670      0.41903418080540     -3.72061359959895
| 28>   C          -5.37364347514958     -2.80189513825759     -0.77129290196079
| 29>   C           1.75407204830187      0.00495062825252     -4.49080298483390
| 30>   H          -0.98431795909306     -0.21377344936065     -0.90629858745910
| 31>   H           1.22800215894165     -1.20258522070747     -1.31877914106392
| 32>   H           0.62517179512875     -1.20997134215702      2.92928626890803
| 33>   H          -4.27690775060525     -0.46977782450932     -0.22495957328416
| 34>   H          -3.10121218302754     -0.72467786189111     -1.50659784452595
| 35>   H           3.17668379160977     -1.46431203281958     -2.80733280056347
| 36>   H           4.50696834270094     -0.31889756166773     -2.74401788183364
| 37>   H           4.64197280556643      1.32498530032051     -0.86260195523244
| 38>   H          -1.57719350162152     -2.12655989145021      3.58911904521291
| 39>   H           3.77244882035292      2.06949825331343      1.33341003755847
| 40>   H          -3.38034273355771     -3.26158572623893     -1.19036333556221
| 41>   H           3.10644906193494      1.44207099302008     -3.81904935558090
| 42>   H           0.70760046653594      1.01273541214614      2.62303040612953
| 43>   H          -4.25272292312955     -2.44939727709872      1.42120167614407
| 44>   H          -5.74157805230302     -3.79119190436047     -1.01203306017028
| 45>   H          -6.11001941931250     -2.06748425845270     -0.46096465772448
| 46>   H           1.29073822168689      0.65901214057997     -5.21920319089900
| 47>   H           1.35255607966759     -0.99994225669025     -4.41396088587662
| 48> *
| 49> 
| 50>                          ****END OF INPUT****
================================================================================

                       *****************************
                       * Geometry Optimization Run *
                       *****************************

Geometry optimization settings:
Update method            Update   .... BFGS
Choice of coordinates    CoordSys .... (2022) Redundant Internals
Initial Hessian          InHess   .... Almloef's Model
Max. no of cycles        MaxIter  .... 114

Convergence Tolerances:
Energy Change            TolE     ....  1.0000e-06 Eh
Max. Gradient            TolMAXG  ....  1.0000e-04 Eh/bohr
RMS Gradient             TolRMSG  ....  3.0000e-05 Eh/bohr
Max. Displacement        TolMAXD  ....  1.0000e-03 bohr
RMS Displacement         TolRMSD  ....  6.0000e-04 bohr
Strict Convergence                .... False

------------------------------------------------------------------------------
                        ORCA OPTIMIZATION COORDINATE SETUP
------------------------------------------------------------------------------

The optimization will be done in redundant internal coordinates (2022)
Making redundant internal coordinates   ...  (2022 redundants) done
Evaluating the initial hessian          ...  (Almloef) done
Evaluating the coordinates              ...  done
Calculating the B-matrix                .... done
Calculating the G-matrix                .... done
Diagonalizing the G-matrix              .... done
Small eigenvalue found = 2.425e-03
Small eigenvalue found = 8.865e-03
Small eigenvalue found = 1.543e-02
Small eigenvalue found = 1.697e-02
Small eigenvalue found = 2.154e-02
Small eigenvalue found = 2.850e-02
The first mode is                       ....   77
The number of degrees of freedom        ....  108

    -----------------------------------------------------------------
                    Redundant Internal Coordinates


    -----------------------------------------------------------------
         Definition                    Initial Value    Approx d2E/dq
    -----------------------------------------------------------------
      1. B(C   3,C   2)                  1.4850         0.440712   
      2. B(C   5,C   3)                  1.3977         0.607430   
      3. B(C   5,C   4)                  1.3903         0.623994   
      4. B(C   7,C   6)                  1.3897         0.625482   
      5. B(C   7,C   2)                  1.3952         0.612912   
      6. B(C   8,C   2)                  1.4043         0.592795   
      7. B(C   8,O   0)                  1.3643         0.615069   
      8. B(C   9,C   3)                  1.3995         0.603444   
      9. B(C  10,C   4)                  1.4038         0.593940   
     10. B(C  10,O   1)                  1.3634         0.616977   
     11. B(C  11,C   4)                  1.5168         0.392179   
     12. B(C  12,C   6)                  1.5177         0.390821   
     13. B(C  13,C   6)                  1.3932         0.617451   
     14. B(C  14,C  10)                  1.3914         0.621608   
     15. B(C  14,C   9)                  1.3879         0.629642   
     16. B(C  15,C  13)                  1.3887         0.627725   
     17. B(C  15,C   8)                  1.3911         0.622170   
     18. B(C  16,C  11)                  1.5073         0.405999   
     19. B(C  17,C  12)                  1.5080         0.405083   
     20. B(C  18,C  16)                  1.3301         0.778609   
     21. B(C  19,C  17)                  1.3275         0.785981   
     22. B(H  20,C   5)                  1.0836         0.368692   
     23. B(H  21,C   7)                  1.0839         0.368307   
     24. B(H  22,C   9)                  1.0836         0.368602   
     25. B(H  23,C  11)                  1.0949         0.353665   
     26. B(H  24,C  11)                  1.0945         0.354191   
     27. B(H  25,C  12)                  1.0917         0.357888   
     28. B(H  26,C  12)                  1.0936         0.355334   
     29. B(H  27,C  13)                  1.0843         0.367767   
     30. B(H  28,C  14)                  1.0824         0.370250   
     31. B(H  29,C  15)                  1.0824         0.370237   
     32. B(H  30,C  16)                  1.0870         0.364126   
     33. B(H  31,C  17)                  1.0869         0.364264   
     34. B(H  32,O   0)                  0.9658         0.508984   
     35. B(H  33,O   1)                  0.9678         0.505278   
     36. B(H  34,C  18)                  1.0826         0.370013   
     37. B(H  35,C  18)                  1.0853         0.366349   
     38. B(H  36,C  19)                  1.0831         0.369385   
     39. B(H  37,C  19)                  1.0849         0.366959   
     40. A(C   8,O   0,H  32)          109.6255         0.368257   
     41. A(C  10,O   1,H  33)          110.4712         0.367991   
     42. A(C   7,C   2,C   8)          117.8234         0.429692   
     43. A(C   3,C   2,C   7)          119.5746         0.407581   
     44. A(C   3,C   2,C   8)          122.5741         0.405184   
     45. A(C   2,C   3,C   9)          122.9967         0.406461   
     46. A(C   2,C   3,C   5)          119.4464         0.406934   
     47. A(C   5,C   3,C   9)          117.5271         0.430372   
     48. A(C  10,C   4,C  11)          121.9323         0.397078   
     49. A(C   5,C   4,C  11)          120.0536         0.400540   
     50. A(C   5,C   4,C  10)          118.0016         0.431226   
     51. A(C   3,C   5,H  20)          118.5138         0.353094   
     52. A(C   3,C   5,C   4)          122.9879         0.432970   
     53. A(C   4,C   5,H  20)          118.4939         0.354707   
     54. A(C   7,C   6,C  13)          117.8787         0.434432   
     55. A(C   7,C   6,C  12)          119.2958         0.400463   
     56. A(C  12,C   6,C  13)          122.7780         0.399553   
     57. A(C   2,C   7,H  21)          118.0229         0.353569   
     58. A(C   6,C   7,H  21)          119.0780         0.354787   
     59. A(C   2,C   7,C   6)          122.8986         0.433856   
     60. A(O   0,C   8,C   2)          122.6604         0.427157   
     61. A(C   2,C   8,C  15)          120.1621         0.430850   
     62. A(O   0,C   8,C  15)          117.1662         0.430879   
     63. A(C   3,C   9,C  14)          120.7591         0.433159   
     64. A(C  14,C   9,H  22)          119.2070         0.355235   
     65. A(C   3,C   9,H  22)          119.9712         0.352686   
     66. A(O   1,C  10,C   4)          122.6408         0.427542   
     67. A(O   1,C  10,C  14)          117.1890         0.431049   
     68. A(C   4,C  10,C  14)          120.1553         0.430929   
     69. A(C   4,C  11,C  16)          114.2505         0.371661   
     70. A(H  23,C  11,H  24)          106.8082         0.289266   
     71. A(C  16,C  11,H  24)          108.3167         0.327898   
     72. A(C   4,C  11,H  24)          107.6364         0.326032   
     73. A(C  16,C  11,H  23)          109.2911         0.327817   
     74. A(C   4,C  11,H  23)          110.2456         0.325953   
     75. A(C   6,C  12,C  17)          111.3656         0.371295   
     76. A(H  25,C  12,H  26)          106.9936         0.289951   
     77. A(C   6,C  12,H  26)          109.7483         0.326019   
     78. A(C  17,C  12,H  25)          109.4250         0.328337   
     79. A(C   6,C  12,H  25)          109.6315         0.326404   
     80. A(C  17,C  12,H  26)          109.5750         0.327950   
     81. A(C   6,C  13,C  15)          120.8159         0.434712   
     82. A(C  15,C  13,H  27)          119.2268         0.354915   
     83. A(C   6,C  13,H  27)          119.9569         0.353923   
     84. A(C  10,C  14,H  28)          118.3830         0.354730   
     85. A(C   9,C  14,H  28)          121.0397         0.355504   
     86. A(C   9,C  14,C  10)          120.5673         0.435476   
     87. A(C  13,C  15,H  29)          121.0442         0.355318   
     88. A(C   8,C  15,H  29)          118.5446         0.354782   
     89. A(C   8,C  15,C  13)          120.4047         0.435308   
     90. A(C  11,C  16,C  18)          125.0808         0.419124   
     91. A(C  18,C  16,H  30)          119.1741         0.367572   
     92. A(C  11,C  16,H  30)          115.7451         0.329398   
     93. A(C  12,C  17,C  19)          124.8877         0.419660   
     94. A(C  19,C  17,H  31)          119.0651         0.368191   
     95. A(C  12,C  17,H  31)          115.9979         0.329296   
     96. A(H  34,C  18,H  35)          116.8302         0.292876   
     97. A(C  16,C  18,H  35)          121.6204         0.367956   
     98. A(C  16,C  18,H  34)          121.5420         0.368585   
     99. A(H  36,C  19,H  37)          116.6593         0.292875   
    100. A(C  17,C  19,H  37)          121.7560         0.368657   
    101. A(C  17,C  19,H  36)          121.5801         0.369075   
    102. D(C   5,C   3,C   2,C   8)    131.2525         0.013252   
    103. D(C   9,C   3,C   2,C   8)    -50.7830         0.013252   
    104. D(C   9,C   3,C   2,C   7)    131.1829         0.013252   
    105. D(C   5,C   3,C   2,C   7)    -46.7815         0.013252   
    106. D(H  20,C   5,C   4,C  11)      0.0002         0.026964   
    107. D(H  20,C   5,C   3,C   2)     -2.9361         0.025471   
    108. D(H  20,C   5,C   4,C  10)   -178.7409         0.026964   
    109. D(C   3,C   5,C   4,C  10)      0.4819         0.026964   
    110. D(C   3,C   5,C   4,C  11)    179.2230         0.026964   
    111. D(C   4,C   5,C   3,C   9)     -0.2335         0.025471   
    112. D(C   4,C   5,C   3,C   2)    177.8413         0.025471   
    113. D(H  20,C   5,C   3,C   9)    178.9891         0.025471   
    114. D(C   6,C   7,C   2,C   3)    178.1828         0.025959   
    115. D(C   6,C   7,C   2,C   8)      0.0560         0.025959   
    116. D(H  21,C   7,C   2,C   3)     -2.0695         0.025959   
    117. D(H  21,C   7,C   6,C  13)   -178.7538         0.027101   
    118. D(H  21,C   7,C   6,C  12)      3.6808         0.027101   
    119. D(C   2,C   7,C   6,C  13)      0.9914         0.027101   
    120. D(C   2,C   7,C   6,C  12)   -176.5740         0.027101   
    121. D(H  21,C   7,C   2,C   8)    179.8038         0.025959   
    122. D(C  15,C   8,C   2,C   7)     -1.0842         0.024194   
    123. D(C  15,C   8,C   2,C   3)   -179.1509         0.024194   
    124. D(O   0,C   8,C   2,C   7)    177.6610         0.024194   
    125. D(C  15,C   8,O   0,H  32)    173.9857         0.027724   
    126. D(O   0,C   8,C   2,C   3)     -0.4058         0.024194   
    127. D(C   2,C   8,O   0,H  32)     -4.7949         0.027724   
    128. D(H  22,C   9,C   3,C   5)    177.0388         0.025119   
    129. D(C  14,C   9,C   3,C   5)     -0.0604         0.025119   
    130. D(H  22,C   9,C   3,C   2)     -0.9623         0.025119   
    131. D(C  14,C   9,C   3,C   2)   -178.0616         0.025119   
    132. D(C   4,C  10,O   1,H  33)     20.6348         0.027908   
    133. D(C  14,C  10,C   4,C  11)   -179.1559         0.024293   
    134. D(C  14,C  10,C   4,C   5)     -0.4399         0.024293   
    135. D(O   1,C  10,C   4,C  11)     -0.6019         0.024293   
    136. D(O   1,C  10,C   4,C   5)    178.1141         0.024293   
    137. D(C  14,C  10,O   1,H  33)   -160.7708         0.027908   
    138. D(H  24,C  11,C   4,C   5)      3.5298         0.011436   
    139. D(H  23,C  11,C   4,C  10)     66.0734         0.011436   
    140. D(H  23,C  11,C   4,C   5)   -112.6168         0.011436   
    141. D(C  16,C  11,C   4,C  10)    -57.4552         0.011436   
    142. D(C  16,C  11,C   4,C   5)    123.8546         0.011436   
    143. D(H  26,C  12,C   6,C   7)   -155.4782         0.011361   
    144. D(H  25,C  12,C   6,C  13)    144.3235         0.011361   
    145. D(H  25,C  12,C   6,C   7)    -38.2362         0.011361   
    146. D(C  17,C  12,C   6,C  13)    -94.4314         0.011361   
    147. D(C  17,C  12,C   6,C   7)     83.0089         0.011361   
    148. D(H  27,C  13,C   6,C  12)     -3.3490         0.026368   
    149. D(H  27,C  13,C   6,C   7)    179.1764         0.026368   
    150. D(C  15,C  13,C   6,C  12)    176.4442         0.026368   
    151. D(C  15,C  13,C   6,C   7)     -1.0304         0.026368   
    152. D(H  28,C  14,C  10,C   4)   -178.6903         0.026746   
    153. D(H  28,C  14,C  10,O   1)      2.6785         0.026746   
    154. D(C   9,C  14,C  10,C   4)      0.1671         0.026746   
    155. D(C   9,C  14,C  10,O   1)   -178.4640         0.026746   
    156. D(H  28,C  14,C   9,H  22)      1.7955         0.027486   
    157. D(H  28,C  14,C   9,C   3)    178.9166         0.027486   
    158. D(C  10,C  14,C   9,H  22)   -177.0313         0.027486   
    159. D(C  10,C  14,C   9,C   3)      0.0898         0.027486   
    160. D(C   8,C  15,C  13,C   6)      0.0333         0.027308   
    161. D(H  29,C  15,C   8,C   2)   -179.8627         0.026797   
    162. D(H  29,C  15,C   8,O   0)      1.3246         0.026797   
    163. D(C  13,C  15,C   8,C   2)      1.0530         0.026797   
    164. D(C  13,C  15,C   8,O   0)   -177.7597         0.026797   
    165. D(H  29,C  15,C  13,H  27)      0.7668         0.027308   
    166. D(H  29,C  15,C  13,C   6)   -179.0278         0.027308   
    167. D(C   8,C  15,C  13,H  27)    179.8280         0.027308   
    168. D(H  30,C  16,C  11,H  23)   -177.8411         0.012218   
    169. D(H  30,C  16,C  11,C   4)    -53.7997         0.012218   
    170. D(C  18,C  16,C  11,H  24)   -113.8022         0.012218   
    171. D(C  18,C  16,C  11,H  23)      2.2120         0.012218   
    172. D(C  18,C  16,C  11,C   4)    126.2533         0.012218   
    173. D(H  31,C  17,C  12,H  25)   -165.8954         0.012165   
    174. D(H  31,C  17,C  12,C   6)     72.7391         0.012165   
    175. D(C  19,C  17,C  12,H  26)    133.7131         0.012165   
    176. D(C  19,C  17,C  12,H  25)     16.6923         0.012165   
    177. D(C  19,C  17,C  12,C   6)   -104.6732         0.012165   
    178. D(H  35,C  18,C  16,H  30)   -179.6759         0.043558   
    179. D(H  35,C  18,C  16,C  11)      0.2693         0.043558   
    180. D(H  34,C  18,C  16,H  30)     -0.6971         0.043558   
    181. D(H  34,C  18,C  16,C  11)    179.2482         0.043558   
    182. D(H  37,C  19,C  17,H  31)   -178.6418         0.044474   
    183. D(H  37,C  19,C  17,C  12)     -1.3028         0.044474   
    184. D(H  36,C  19,C  17,H  31)      0.5568         0.044474   
    185. D(H  36,C  19,C  17,C  12)    177.8958         0.044474   
    -----------------------------------------------------------------

Number of atoms                         .... 38
Number of degrees of freedom            .... 185


         *************************************************************
         *                GEOMETRY OPTIMIZATION CYCLE   1            *
         *************************************************************
---------------------------------
CARTESIAN COORDINATES (ANGSTROEM)
---------------------------------
  O      1.591868    1.350448    2.431193
  O     -3.682644   -2.210100    2.165765
  C      1.283569   -0.079249    0.491588
  C     -0.017865   -0.622092    0.957256
  C     -2.345144   -1.172860    0.425233
  C     -1.106893   -0.642208    0.081410
  C      2.983360    0.016406   -1.265054
  C      1.791876   -0.475574   -0.745833
  C      2.019658    0.859714    1.232272
  C     -0.205394   -1.161360    2.234960
  C     -2.500311   -1.700866    1.716647
  C     -3.487358   -1.144149   -0.572321
  C      3.420998   -0.411446   -2.653893
  C      3.701225    0.929765   -0.495961
  C     -1.432075   -1.692621    2.608150
  C      3.225511    1.348268    0.739804
  C     -4.082946   -2.496321   -0.870628
  C      2.752905    0.419034   -3.720614
  C     -5.373643   -2.801895   -0.771293
  C      1.754072    0.004951   -4.490803
  H     -0.984318   -0.213773   -0.906299
  H      1.228002   -1.202585   -1.318779
  H      0.625172   -1.209971    2.929286
  H     -4.276908   -0.469778   -0.224960
  H     -3.101212   -0.724678   -1.506598
  H      3.176684   -1.464312   -2.807333
  H      4.506968   -0.318898   -2.744018
  H      4.641973    1.324985   -0.862602
  H     -1.577194   -2.126560    3.589119
  H      3.772449    2.069498    1.333410
  H     -3.380343   -3.261586   -1.190363
  H      3.106449    1.442071   -3.819049
  H      0.707600    1.012735    2.623030
  H     -4.252723   -2.449397    1.421202
  H     -5.741578   -3.791192   -1.012033
  H     -6.110019   -2.067484   -0.460965
  H      1.290738    0.659012   -5.219203
  H      1.352556   -0.999942   -4.413961

----------------------------
CARTESIAN COORDINATES (A.U.)
----------------------------
  NO LB      ZA    FRAG     MASS         X           Y           Z
   0 O     8.0000    0    15.999    3.008195    2.551977    4.594289
   1 O     8.0000    0    15.999   -6.959189   -4.176484    4.092702
   2 C     6.0000    0    12.011    2.425594   -0.149758    0.928966
   3 C     6.0000    0    12.011   -0.033761   -1.175584    1.808951
   4 C     6.0000    0    12.011   -4.431680   -2.216385    0.803575
   5 C     6.0000    0    12.011   -2.091724   -1.213597    0.153843
   6 C     6.0000    0    12.011    5.637734    0.031003   -2.390606
   7 C     6.0000    0    12.011    3.386154   -0.898705   -1.409421
   8 C     6.0000    0    12.011    3.816601    1.624624    2.328656
   9 C     6.0000    0    12.011   -0.388138   -2.194652    4.223462
  10 C     6.0000    0    12.011   -4.724903   -3.214171    3.243993
  11 C     6.0000    0    12.011   -6.590152   -2.162127   -1.081529
  12 C     6.0000    0    12.011    6.464749   -0.777521   -5.015131
  13 C     6.0000    0    12.011    6.994302    1.757002   -0.937230
  14 C     6.0000    0    12.011   -2.706230   -3.198591    4.928690
  15 C     6.0000    0    12.011    6.095332    2.547856    1.398027
  16 C     6.0000    0    12.011   -7.715650   -4.717364   -1.645248
  17 C     6.0000    0    12.011    5.202237    0.791860   -7.030941
  18 C     6.0000    0    12.011  -10.154715   -5.294814   -1.457532
  19 C     6.0000    0    12.011    3.314716    0.009355   -8.486388
  20 H     1.0000    0     1.008   -1.860091   -0.403973   -1.712656
  21 H     1.0000    0     1.008    2.320588   -2.272557   -2.492131
  22 H     1.0000    0     1.008    1.181403   -2.286514    5.535549
  23 H     1.0000    0     1.008   -8.082184   -0.887751   -0.425112
  24 H     1.0000    0     1.008   -5.860442   -1.369443   -2.847057
  25 H     1.0000    0     1.008    6.003062   -2.767149   -5.305090
  26 H     1.0000    0     1.008    8.516936   -0.602629   -5.185442
  27 H     1.0000    0     1.008    8.772057    2.503859   -1.630081
  28 H     1.0000    0     1.008   -2.980464   -4.018616    6.782452
  29 H     1.0000    0     1.008    7.128895    3.910785    2.519780
  30 H     1.0000    0     1.008   -6.387922   -6.163504   -2.249461
  31 H     1.0000    0     1.008    5.870338    2.725119   -7.216957
  32 H     1.0000    0     1.008    1.337171    1.913793    4.956809
  33 H     1.0000    0     1.008   -8.036482   -4.628690    2.685682
  34 H     1.0000    0     1.008  -10.850010   -7.164314   -1.912465
  35 H     1.0000    0     1.008  -11.546263   -3.906979   -0.871097
  36 H     1.0000    0     1.008    2.439142    1.245352   -9.862865
  37 H     1.0000    0     1.008    2.555961   -1.889617   -8.341177

--------------------------------
INTERNAL COORDINATES (ANGSTROEM)
--------------------------------
 O      0   0   0     0.000000000000     0.00000000     0.00000000
 O      1   0   0     6.369335601180     0.00000000     0.00000000
 C      1   2   0     2.429228513149    62.13610811     0.00000000
 C      3   1   2     1.485010758460    94.35798141   359.95580566
 C      2   1   3     2.427802115564    48.30477874   328.34944588
 C      5   2   1     1.390349658496   146.20083239    20.98583620
 C      3   1   2     2.446268672502   117.52639725   177.69120889
 C      7   3   1     1.389701667757    28.61253987   181.28215843
 C      1   2   3     1.364271422473    91.25866572   359.85458235
 C      4   3   1     1.399465632539   122.99668317   309.02458076
 C      2   1   3     1.363428274069    24.05148705   357.39685748
 C      5   2   1     1.516770486140    93.71103810   203.46806974
 C      7   3   1     1.517714894100   147.82795279   186.89914543
 C      7   3   1     1.393219041056    89.26980055     2.15854564
 C     10   4   3     1.387897067648   120.75911241   181.93844860
 C     14   7   3     1.388726986463   120.81591748   359.44439231
 C     12   5   2     1.507343075769   114.25053290   302.25956049
 C     13   7   3     1.507958052029   111.36564908    79.92799082
 C     17  12   5     1.330091153854   125.08077115   126.25334415
 C     18  13   7     1.327525875925   124.88774966   255.32680378
 H      6   5   2     1.083581539496   118.49387632   182.86228146
 H      8   7   3     1.083865715655   119.07796666   180.25481696
 H     10   4   3     1.083647466465   119.97122185   359.03765353
 H     12   5   2     1.094908063351   110.24560675    65.78816593
 H     12   5   2     1.094503713451   107.63643615   181.93482581
 H     13   7   3     1.091677094494   109.63152869   318.68291284
 H     13   7   3     1.093627107612   109.74829992   201.44093591
 H     14   7   3     1.084265201782   119.95694119   179.65119347
 H     15  10   4     1.082433088819   121.03971132   178.91659172
 H     16  14   7     1.082443226880   121.04417099   180.97215400
 H     17  12   5     1.086973683077   115.74509713   306.20027240
 H     18  13   7     1.086870293482   115.99787705    72.73909836
 H      1   2   3     0.965805771880    19.02264265   165.09109740
 H      2   1   3     0.967795072478   131.15361463   322.34333112
 H     19  17  12     1.082607855256   121.54203979   179.24816501
 H     19  17  12     1.085316769744   121.62040317     0.26933894
 H     20  18  13     1.083070430300   121.58008177   177.89580305
 H     20  18  13     1.084863812397   121.75603095   358.69718625

---------------------------
INTERNAL COORDINATES (A.U.)
---------------------------
 O      0   0   0     0.000000000000     0.00000000     0.00000000
 O      1   0   0    12.036299941265     0.00000000     0.00000000
 C      1   2   0     4.590576606564    62.13610811     0.00000000
 C      3   1   2     2.806263639416    94.35798141   359.95580566
 C      2   1   3     4.587881105771    48.30477874   328.34944588
 C      5   2   1     2.627380084949   146.20083239    20.98583620
 C      3   1   2     4.622777841021   117.52639725   177.69120889
 C      7   3   1     2.626155559914    28.61253987   181.28215843
 C      1   2   3     2.578099360810    91.25866572   359.85458235
 C      4   3   1     2.644606779333   122.99668317   309.02458076
 C      2   1   3     2.576506041236    24.05148705   357.39685748
 C      5   2   1     2.866280826819    93.71103810   203.46806974
 C      7   3   1     2.868065499223   147.82795279   186.89914543
 C      7   3   1     2.632802432159    89.26980055     2.15854564
 C     10   4   3     2.622745359928   120.75911241   181.93844860
 C     14   7   3     2.624313679201   120.81591748   359.44439231
 C     12   5   2     2.848465603067   114.25053290   302.25956049
 C     13   7   3     2.849627739777   111.36564908    79.92799082
 C     17  12   5     2.513508013935   125.08077115   126.25334415
 C     18  13   7     2.508660341192   124.88774966   255.32680378
 H      6   5   2     2.047672353421   118.49387632   182.86228146
 H      8   7   3     2.048209368534   119.07796666   180.25481696
 H     10   4   3     2.047796937336   119.97122185   359.03765353
 H     12   5   2     2.069076381555   110.24560675    65.78816593
 H     12   5   2     2.068312270983   107.63643615   181.93482581
 H     13   7   3     2.062970735268   109.63152869   318.68291284
 H     13   7   3     2.066655726020   109.74829992   201.44093591
 H     14   7   3     2.048964287909   119.95694119   179.65119347
 H     15  10   4     2.045502096162   121.03971132   178.91659172
 H     16  14   7     2.045521254322   121.04417099   180.97215400
 H     17  12   5     2.054082575795   115.74509713   306.20027240
 H     18  13   7     2.053887197775   115.99787705    72.73909836
 H      1   2   3     1.825108407413    19.02264265   165.09109740
 H      2   1   3     1.828867640741   131.15361463   322.34333112
 H     19  17  12     2.045832356865   121.54203979   179.24816501
 H     19  17  12     2.050951463369   121.62040317     0.26933894
 H     20  18  13     2.046706497015   121.58008177   177.89580305
 H     20  18  13     2.050095498033   121.75603095   358.69718625

---------------------
BASIS SET INFORMATION
---------------------
There are 3 groups of distinct atoms

 Group   1 Type O   : 11s6p2d1f contracted to 5s3p2d1f pattern {62111/411/11/1}
 Group   2 Type C   : 11s6p2d1f contracted to 5s3p2d1f pattern {62111/411/11/1}
 Group   3 Type H   : 5s1p contracted to 3s1p pattern {311/1}

Atom   0O    basis set group =>   1
Atom   1O    basis set group =>   1
Atom   2C    basis set group =>   2
Atom   3C    basis set group =>   2
Atom   4C    basis set group =>   2
Atom   5C    basis set group =>   2
Atom   6C    basis set group =>   2
Atom   7C    basis set group =>   2
Atom   8C    basis set group =>   2
Atom   9C    basis set group =>   2
Atom  10C    basis set group =>   2
Atom  11C    basis set group =>   2
Atom  12C    basis set group =>   2
Atom  13C    basis set group =>   2
Atom  14C    basis set group =>   2
Atom  15C    basis set group =>   2
Atom  16C    basis set group =>   2
Atom  17C    basis set group =>   2
Atom  18C    basis set group =>   2
Atom  19C    basis set group =>   2
Atom  20H    basis set group =>   3
Atom  21H    basis set group =>   3
Atom  22H    basis set group =>   3
Atom  23H    basis set group =>   3
Atom  24H    basis set group =>   3
Atom  25H    basis set group =>   3
Atom  26H    basis set group =>   3
Atom  27H    basis set group =>   3
Atom  28H    basis set group =>   3
Atom  29H    basis set group =>   3
Atom  30H    basis set group =>   3
Atom  31H    basis set group =>   3
Atom  32H    basis set group =>   3
Atom  33H    basis set group =>   3
Atom  34H    basis set group =>   3
Atom  35H    basis set group =>   3
Atom  36H    basis set group =>   3
Atom  37H    basis set group =>   3
---------------------------------
AUXILIARY/J BASIS SET INFORMATION
---------------------------------
There are 3 groups of distinct atoms

 Group   1 Type O   : 12s5p4d2f1g contracted to 6s4p3d1f1g pattern {711111/2111/211/2/1}
 Group   2 Type C   : 12s5p4d2f1g contracted to 6s4p3d1f1g pattern {711111/2111/211/2/1}
 Group   3 Type H   : 5s2p1d contracted to 3s1p1d pattern {311/2/1}

Atom   0O    basis set group =>   1
Atom   1O    basis set group =>   1
Atom   2C    basis set group =>   2
Atom   3C    basis set group =>   2
Atom   4C    basis set group =>   2
Atom   5C    basis set group =>   2
Atom   6C    basis set group =>   2
Atom   7C    basis set group =>   2
Atom   8C    basis set group =>   2
Atom   9C    basis set group =>   2
Atom  10C    basis set group =>   2
Atom  11C    basis set group =>   2
Atom  12C    basis set group =>   2
Atom  13C    basis set group =>   2
Atom  14C    basis set group =>   2
Atom  15C    basis set group =>   2
Atom  16C    basis set group =>   2
Atom  17C    basis set group =>   2
Atom  18C    basis set group =>   2
Atom  19C    basis set group =>   2
Atom  20H    basis set group =>   3
Atom  21H    basis set group =>   3
Atom  22H    basis set group =>   3
Atom  23H    basis set group =>   3
Atom  24H    basis set group =>   3
Atom  25H    basis set group =>   3
Atom  26H    basis set group =>   3
Atom  27H    basis set group =>   3
Atom  28H    basis set group =>   3
Atom  29H    basis set group =>   3
Atom  30H    basis set group =>   3
Atom  31H    basis set group =>   3
Atom  32H    basis set group =>   3
Atom  33H    basis set group =>   3
Atom  34H    basis set group =>   3
Atom  35H    basis set group =>   3
Atom  36H    basis set group =>   3
Atom  37H    basis set group =>   3


           ************************************************************
           *        Program running with 20 parallel MPI-processes    *
           *              working on a common directory               *
           ************************************************************
------------------------------------------------------------------------------
                             ORCA STARTUP CALCULATIONS
                           -- RI-GTO INTEGRALS CHOSEN --
------------------------------------------------------------------------------
------------------------------------------------------------------------------
                   ___                                                        
                  /   \      - P O W E R E D   B Y -                         
                 /     \                                                     
                 |  |  |   _    _      __       _____    __    __             
                 |  |  |  | |  | |    /  \     |  _  \  |  |  /  |          
                  \  \/   | |  | |   /    \    | | | |  |  | /  /          
                 / \  \   | |__| |  /  /\  \   | |_| |  |  |/  /          
                |  |  |   |  __  | /  /__\  \  |    /   |      \           
                |  |  |   | |  | | |   __   |  |    \   |  |\   \          
                \     /   | |  | | |  |  |  |  | |\  \  |  | \   \       
                 \___/    |_|  |_| |__|  |__|  |_| \__\ |__|  \__/        
                                                                              
                      - O R C A' S   B I G   F R I E N D -                    
                                      &                                       
                       - I N T E G R A L  F E E D E R -                       
                                                                              
 v1 FN, 2020, v2 2021, v3 2022-2024                                           
------------------------------------------------------------------------------


----------------------
SHARK INTEGRAL PACKAGE
----------------------

Number of atoms                             ...     38
Number of basis functions                   ...    728
Number of shells                            ...    292
Maximum angular momentum                    ...      3
Integral batch strategy                     ... SHARK/LIBINT Hybrid
RI-J (if used) integral strategy            ... SPLIT-RIJ (Revised 2003 algorithm where possible)
Printlevel                                  ...      1
Contraction scheme used                     ... SEGMENTED contraction
Prescreening option                         ... SCHWARTZ
   Thresh                                   ... 2.500e-11
   Tcut                                     ... 2.500e-12
   Tpresel                                  ... 2.500e-12 
Coulomb Range Separation                    ... NOT USED
Exchange Range Separation                   ... NOT USED
Multipole approximations                    ... NOT USED
Finite Nucleus Model                        ... NOT USED
CABS basis                                  ... NOT available
Auxiliary Coulomb fitting basis             ... AVAILABLE
   # of basis functions in Aux-J            ...   1178
   # of shells in Aux-J                     ...    390
   Maximum angular momentum in Aux-J        ...      4
Auxiliary J/K fitting basis                 ... NOT available
Auxiliary Correlation fitting basis         ... NOT available
Auxiliary 'external' fitting basis          ... NOT available

Checking pre-screening integrals            ... done (  0.0 sec) Dimension = 292
Check shell pair data                       ... done (  0.0 sec)
Shell pair information
Shell pair cut-off parameter TPreSel        ...   2.5e-12
Total number of shell pairs                 ...     42778
Shell pairs after pre-screening             ...     29798
Total number of primitive shell pairs       ...    129780
Primitive shell pairs kept                  ...     60915
          la=0 lb=0:   8048 shell pairs
          la=1 lb=0:   8684 shell pairs
          la=1 lb=1:   2370 shell pairs
          la=2 lb=0:   4164 shell pairs
          la=2 lb=1:   2273 shell pairs
          la=2 lb=2:    563 shell pairs
          la=3 lb=0:   1964 shell pairs
          la=3 lb=1:   1087 shell pairs
          la=3 lb=2:    513 shell pairs
          la=3 lb=3:    132 shell pairs

Calculating one electron integrals          ... done (  0.0 sec)
Calculating RI/J V-Matrix + Cholesky decomp.... done (  0.1 sec)
Calculating Nuclear repulsion               ... done (  0.0 sec) ENN=   1419.248366650553 Eh

Diagonalization of the overlap matrix:
Smallest eigenvalue                        ... 6.747e-06
Time for diagonalization                   ...    0.063 sec
Threshold for overlap eigenvalues          ... 1.000e-07
Number of eigenvalues below threshold      ... 0
Time for construction of square roots      ...    0.029 sec
Total time needed                          ...    0.097 sec

-------------------
DFT GRID GENERATION
-------------------

General Integration Accuracy     IntAcc      ... 4.388
Radial Grid Type                 RadialGrid  ... OptM3 with GC (2021)
Angular Grid (max. ang.)         AngularGrid ... 4 (Lebedev-302)
Angular grid pruning method      GridPruning ... 4 (adaptive)
Weight generation scheme         WeightScheme... mBecke (2022)
Basis function cutoff            BFCut       ... 1.0000e-11
Integration weight cutoff        WCut        ... 1.0000e-14
Partially contracted basis set               ... off
Rotationally invariant grid construction     ... off
Angular grids for H and He will be reduced by one unit

Total number of grid points                  ...   177112
Total number of batches                      ...     2786
Average number of points per batch           ...       63
Average number of grid points per atom       ...     4661

--------------------
COSX GRID GENERATION
--------------------

GRIDX 1
-------
General Integration Accuracy     IntAcc      ... 3.816
Radial Grid Type                 RadialGrid  ... OptM3 with GC (2021)
Angular Grid (max. ang.)         AngularGrid ... 1 (Lebedev-50)
Angular grid pruning method      GridPruning ... 4 (adaptive)
Weight generation scheme         WeightScheme... mBecke (2022)
Basis function cutoff            BFCut       ... 1.0000e-11
Integration weight cutoff        WCut        ... 1.0000e-14
Partially contracted basis set               ... on
Rotationally invariant grid construction     ... off
Angular grids for H and He will be reduced by one unit

Total number of grid points                  ...    22467
Total number of batches                      ...      199
Average number of points per batch           ...      112
Average number of grid points per atom       ...      591
UseSFitting                                  ... on

GRIDX 2
-------
General Integration Accuracy     IntAcc      ... 4.020
Radial Grid Type                 RadialGrid  ... OptM3 with GC (2021)
Angular Grid (max. ang.)         AngularGrid ... 2 (Lebedev-110)
Angular grid pruning method      GridPruning ... 4 (adaptive)
Weight generation scheme         WeightScheme... mBecke (2022)
Basis function cutoff            BFCut       ... 1.0000e-11
Integration weight cutoff        WCut        ... 1.0000e-14
Partially contracted basis set               ... on
Rotationally invariant grid construction     ... off
Angular grids for H and He will be reduced by one unit

Total number of grid points                  ...    48498
Total number of batches                      ...      400
Average number of points per batch           ...      121
Average number of grid points per atom       ...     1276
UseSFitting                                  ... on

GRIDX 3
-------
General Integration Accuracy     IntAcc      ... 4.338
Radial Grid Type                 RadialGrid  ... OptM3 with GC (2021)
Angular Grid (max. ang.)         AngularGrid ... 3 (Lebedev-194)
Angular grid pruning method      GridPruning ... 4 (adaptive)
Weight generation scheme         WeightScheme... mBecke (2022)
Basis function cutoff            BFCut       ... 1.0000e-11
Integration weight cutoff        WCut        ... 1.0000e-14
Partially contracted basis set               ... on
Rotationally invariant grid construction     ... off
Angular grids for H and He will be reduced by one unit

Total number of grid points                  ...   106093
Total number of batches                      ...      847
Average number of points per batch           ...      125
Average number of grid points per atom       ...     2792
UseSFitting                                  ... on
Initializing property integral containers    ... done (  0.0 sec)

SHARK setup successfully completed in   2.1 seconds

Maximum memory used throughout the entire STARTUP-calculation: 70.7 MB


           ************************************************************
           *        Program running with 20 parallel MPI-processes    *
           *              working on a common directory               *
           ************************************************************
-------------------------------------------------------------------------------
                                 ORCA GUESS
                   Start orbitals & Density for SCF / CASSCF
-------------------------------------------------------------------------------

------------
SCF SETTINGS
------------
Hamiltonian:
 Density Functional     Method          .... DFT(GTOs)
 Exchange Functional    Exchange        .... B88
   X-Alpha parameter    XAlpha          ....  0.666667
   Becke's b parameter  XBeta           ....  0.004200
 Correlation Functional Correlation     .... LYP
 LDA part of GGA corr.  LDAOpt          .... VWN-5
 Gradients option       PostSCFGGA      .... off
 Hybrid DFT is turned on
   Fraction HF Exchange ScalHFX         ....  0.200000
   Scaling of DF-GGA-X  ScalDFX         ....  0.720000
   Scaling of DF-GGA-C  ScalDFC         ....  0.810000
   Scaling of DF-LDA-C  ScalLDAC        ....  1.000000
   Perturbative correction              ....  0.000000
   NL short-range parameter             ....  4.800000
 RI-approximation to the Coulomb term is turned on
   Number of AuxJ basis functions       .... 1178
   RIJ-COSX (HFX calculated with COS-X)).... on


General Settings:
 Integral files         IntName         .... honokiol3
 Hartree-Fock type      HFTyp           .... RHF
 Total Charge           Charge          ....    0
 Multiplicity           Mult            ....    1
 Number of Electrons    NEL             ....  142
 Basis Dimension        Dim             ....  728
 Nuclear Repulsion      ENuc            ....   1419.2483666506 Eh

Convergence Acceleration:
 AO-DIIS                CNVDIIS         .... on
   Start iteration      DIISMaxIt       ....    12
   Startup error        DIISStart       ....  0.200000
   # of expansion vecs  DIISMaxEq       ....     5
   Bias factor          DIISBfac        ....   1.050
   Max. coefficient     DIISMaxC        ....  10.000
 MO-DIIS                CNVKDIIS        .... off
 Trust-Rad. Augm. Hess. CNVTRAH         .... auto
   Auto Start mean grad. ratio tolernc. ....  1.125000
   Auto Start start iteration           ....    50
   Auto Start num. interpolation iter.  ....    10
   Max. Number of Micro iterations      ....    24
   Max. Number of Macro iterations      .... Maxiter - #DIIS iter
   Number of Davidson start vectors     ....     2
   Converg. threshold    (grad. norm)   ....   1.000e-05
   Grad. Scal. Fac. for Micro threshold ....   0.100
   Minimum threshold for Micro iter.    ....   1.000e-02
   NR start threshold (gradient norm)   ....   1.000e-04
   Initial trust radius                 ....   0.400
   Minimum AH scaling param. (alpha)    ....   1.000
   Maximum AH scaling param. (alpha)    .... 1000.000
   Quad. conv. algorithm                .... NR
   White noise on init. David. guess    .... on
   Maximum white noise                  ....   0.010
   Pseudo random numbers                .... off
   Inactive MOs                         .... canonical
   Orbital update algorithm             .... Taylor
   Preconditioner                       .... Diag
   Full preconditioner red. dimension   ....   250
 SOSCF                  CNVSOSCF        .... on
   Start iteration      SOSCFMaxIt      ....   150
   Startup grad/error   SOSCFStart      ....  0.003300
   Hessian update       SOSCFHessUp     .... L-BFGS
 Level Shifting         CNVShift        .... on
   Level shift para.    LevelShift      ....    0.2500
   Turn off err/grad.   ShiftErr        ....    0.0010
 Zerner damping         CNVZerner       .... off
 Static damping         CNVDamp         .... on
   Fraction old density DampFac         ....    0.7000
   Max. Damping (<1)    DampMax         ....    0.9800
   Min. Damping (>=0)   DampMin         ....    0.0000
   Turn off err/grad.   DampErr         ....    0.1000

SCF Procedure:
 Maximum # iterations   MaxIter         ....   125
 SCF integral mode      SCFMode         .... Direct
   Integral package                     .... SHARK and LIBINT hybrid scheme
 Reset frequency        DirectResetFreq ....    20
 Integral Threshold     Thresh          ....  2.500e-11 Eh
 Primitive CutOff       TCut            ....  2.500e-12 Eh

Convergence Tolerance:
 Convergence Check Mode ConvCheckMode   .... Total+1el-Energy
 Convergence forced     ConvForced      .... 0
 Energy Change          TolE            ....  1.000e-08 Eh
 1-El. energy change                    ....  1.000e-05 Eh
 Orbital Gradient       TolG            ....  1.000e-05
 Orbital Rotation angle TolX            ....  1.000e-05
 DIIS Error             TolErr          ....  5.000e-07

------------------------------
INITIAL GUESS: MODEL POTENTIAL
------------------------------
Loading Hartree-Fock densities                     ... done
Calculating cut-offs                               ... done
Initializing the effective Hamiltonian             ... done
Setting up the integral package (SHARK)            ... done
Starting the Coulomb interaction                   ... done (   0.1 sec)
Making the grid                                    ... done (   0.2 sec)
Mapping shells                                     ... done
Starting the XC term evaluation                    ... done (   0.1 sec)
  promolecular density results
     # of electrons  =    142.007928553
     EX              =   -114.330050733
     EC              =     -4.776617547
     EX+EC           =   -119.106668281
Transforming the Hamiltonian                       ... done (   0.0 sec)
Diagonalizing the Hamiltonian                      ... done (   0.1 sec)
Back transforming the eigenvectors                 ... done (   0.0 sec)
Now organizing SCF variables                       ... done
                      ------------------
                      INITIAL GUESS DONE (   0.6 sec)
                      ------------------
             **** ENERGY FILE WAS UPDATED (honokiol3.en.tmp) ****
Finished Guess after   1.2 sec
Maximum memory used throughout the entire GUESS-calculation: 55.1 MB


           ************************************************************
           *        Program running with 20 parallel MPI-processes    *
           *              working on a common directory               *
           ************************************************************

-------------------------------------------------------------------------------------------
                                      ORCA LEAN-SCF
                              memory conserving SCF solver
-------------------------------------------------------------------------------------------

----------------------------------------D-I-I-S--------------------------------------------
Iteration    Energy (Eh)           Delta-E    RMSDP     MaxDP     DIISErr   Damp  Time(sec)
-------------------------------------------------------------------------------------------
               ***  Starting incremental Fock matrix formation  ***
    1    -846.4221560994164975     0.00e+00  1.45e-03  1.23e-01  2.31e-01  0.700   3.5
    2    -846.6671373936192140    -2.45e-01  1.32e-03  1.32e-01  1.03e-01  0.700   2.2
                               ***Turning on AO-DIIS***
    3    -846.7732932193584929    -1.06e-01  4.98e-04  4.03e-02  3.91e-02  0.700   2.0
    4    -846.8345625863544228    -6.13e-02  7.53e-04  4.43e-02  2.14e-02  0.000   1.9
    5    -846.9659429290891239    -1.31e-01  3.02e-04  3.41e-02  4.82e-03  0.000   2.0
                              *** Initializing SOSCF ***
---------------------------------------S-O-S-C-F--------------------------------------
Iteration    Energy (Eh)           Delta-E    RMSDP     MaxDP     MaxGrad    Time(sec)
--------------------------------------------------------------------------------------
    6    -846.9665538995914176    -6.11e-04  1.03e-04  9.69e-03  1.27e-03     2.0
               *** Restarting incremental Fock matrix formation ***
    7    -846.9666222773698792    -6.84e-05  7.99e-05  7.91e-03  2.15e-04     3.4
    8    -846.9666158112941048     6.47e-06  1.72e-05  1.78e-03  5.25e-04     2.6
    9    -846.9666278120284915    -1.20e-05  1.11e-05  9.87e-04  3.53e-05     2.3
   10    -846.9666276881562226     1.24e-07  4.84e-06  5.99e-04  5.42e-05     2.2
   11    -846.9666279980410764    -3.10e-07  3.46e-06  2.95e-04  1.62e-05     1.9
   12    -846.9666279821608441     1.59e-08  1.40e-06  1.12e-04  2.08e-05     1.8
   13    -846.9666279952753030    -1.31e-08  1.89e-06  1.52e-04  3.35e-06     1.7
   14    -846.9666279998077698    -4.53e-09  9.04e-07  6.52e-05  5.01e-06     1.7
                 **** Energy Check signals convergence ****

               *****************************************************
               *                     SUCCESS                       *
               *           SCF CONVERGED AFTER  14 CYCLES          *
               *****************************************************

Recomputing exchange energy using gridx3       ... done (    5.411 sec)
Old exchange energy                            :    -23.256024094 Eh
New exchange energy                            :    -23.256034888 Eh
Exchange energy change after final integration :     -0.000010794 Eh
Total energy after final integration           :   -846.966638793 Eh
             **** ENERGY FILE WAS UPDATED (honokiol3.en.tmp) ****

----------------
TOTAL SCF ENERGY
----------------

Total Energy       :       -846.96663879336722 Eh          -23047.13394 eV

Components:
Nuclear Repulsion  :       1419.24836665055318 Eh           38619.71144 eV
Electronic Energy  :      -2266.21499465036095 Eh          -61666.84509 eV
One Electron Energy:      -3966.29958805356227 Eh         -107928.49877 eV
Two Electron Energy:       1700.08459340320132 Eh           46261.65368 eV

Virial components:
Potential Energy   :      -1690.14598948511639 Eh          -45991.21052 eV
Kinetic Energy     :        843.17935069174905 Eh           22944.07659 eV
Virial Ratio       :          2.00449167558303

DFT components:
N(Alpha)           :       71.000114779607 electrons
N(Beta)            :       71.000114779607 electrons
N(Total)           :      142.000229559214 electrons
E(X)               :      -92.386817961427 Eh       
E(C)               :       -5.640541233929 Eh       
E(XC)              :      -98.027359195355 Eh       

---------------
SCF CONVERGENCE
---------------

  Last Energy change         ...    4.5325e-09  Tolerance :   1.0000e-08
  Last MAX-Density change    ...    6.5236e-05  Tolerance :   1.0000e-07
  Last RMS-Density change    ...    9.0358e-07  Tolerance :   5.0000e-09
  Last DIIS Error            ...    1.2666e-03  Tolerance :   5.0000e-07
  Last Orbital Gradient      ...    5.0119e-06  Tolerance :   1.0000e-05
  Last Orbital Rotation      ...    7.1926e-06  Tolerance :   1.0000e-05


----------------
ORBITAL ENERGIES
----------------

  NO   OCC          E(Eh)            E(eV) 
   0   2.0000     -19.154243      -521.2134 
   1   2.0000     -19.148385      -521.0541 
   2   2.0000     -10.238593      -278.6063 
   3   2.0000     -10.229201      -278.3507 
   4   2.0000     -10.198502      -277.5154 
   5   2.0000     -10.195468      -277.4328 
   6   2.0000     -10.190059      -277.2856 
   7   2.0000     -10.185794      -277.1695 
   8   2.0000     -10.185212      -277.1537 
   9   2.0000     -10.181695      -277.0580 
  10   2.0000     -10.179451      -276.9969 
  11   2.0000     -10.179301      -276.9929 
  12   2.0000     -10.175011      -276.8761 
  13   2.0000     -10.174498      -276.8622 
  14   2.0000     -10.173955      -276.8474 
  15   2.0000     -10.172210      -276.7999 
  16   2.0000     -10.169219      -276.7185 
  17   2.0000     -10.167761      -276.6788 
  18   2.0000     -10.164193      -276.5818 
  19   2.0000     -10.160197      -276.4730 
  20   2.0000      -1.062711       -28.9178 
  21   2.0000      -1.056582       -28.7511 
  22   2.0000      -0.872966       -23.7546 
  23   2.0000      -0.853875       -23.2351 
  24   2.0000      -0.822478       -22.3808 
  25   2.0000      -0.799316       -21.7505 
  26   2.0000      -0.776106       -21.1189 
  27   2.0000      -0.765515       -20.8307 
  28   2.0000      -0.743036       -20.2190 
  29   2.0000      -0.722945       -19.6723 
  30   2.0000      -0.697565       -18.9817 
  31   2.0000      -0.676951       -18.4208 
  32   2.0000      -0.635932       -17.3046 
  33   2.0000      -0.621987       -16.9251 
  34   2.0000      -0.597148       -16.2492 
  35   2.0000      -0.589619       -16.0443 
  36   2.0000      -0.578708       -15.7474 
  37   2.0000      -0.554915       -15.1000 
  38   2.0000      -0.552479       -15.0337 
  39   2.0000      -0.539222       -14.6730 
  40   2.0000      -0.499245       -13.5851 
  41   2.0000      -0.491748       -13.3812 
  42   2.0000      -0.486215       -13.2306 
  43   2.0000      -0.474246       -12.9049 
  44   2.0000      -0.461351       -12.5540 
  45   2.0000      -0.456351       -12.4179 
  46   2.0000      -0.446567       -12.1517 
  47   2.0000      -0.440355       -11.9827 
  48   2.0000      -0.429399       -11.6845 
  49   2.0000      -0.428251       -11.6533 
  50   2.0000      -0.421396       -11.4668 
  51   2.0000      -0.418213       -11.3801 
  52   2.0000      -0.409588       -11.1455 
  53   2.0000      -0.403544       -10.9810 
  54   2.0000      -0.399157       -10.8616 
  55   2.0000      -0.394693       -10.7401 
  56   2.0000      -0.377233       -10.2650 
  57   2.0000      -0.369354       -10.0506 
  58   2.0000      -0.367215        -9.9924 
  59   2.0000      -0.360008        -9.7963 
  60   2.0000      -0.354649        -9.6505 
  61   2.0000      -0.350452        -9.5363 
  62   2.0000      -0.339133        -9.2283 
  63   2.0000      -0.333202        -9.0669 
  64   2.0000      -0.323589        -8.8053 
  65   2.0000      -0.287836        -7.8324 
  66   2.0000      -0.264710        -7.2031 
  67   2.0000      -0.261371        -7.1123 
  68   2.0000      -0.260600        -7.0913 
  69   2.0000      -0.229807        -6.2534 
  70   2.0000      -0.211331        -5.7506 
  71   0.0000      -0.031169        -0.8481 
  72   0.0000      -0.027654        -0.7525 
  73   0.0000      -0.009762        -0.2656 
  74   0.0000      -0.007671        -0.2087 
  75   0.0000       0.008628         0.2348 
  76   0.0000       0.023534         0.6404 
  77   0.0000       0.035886         0.9765 
  78   0.0000       0.046871         1.2754 
  79   0.0000       0.050110         1.3636 
  80   0.0000       0.058129         1.5818 
  81   0.0000       0.063490         1.7276 
*Only the first 10 virtual orbitals were printed.

                    ********************************
                    * MULLIKEN POPULATION ANALYSIS *
                    ********************************

-----------------------
MULLIKEN ATOMIC CHARGES
-----------------------
   0 O :   -0.396725
   1 O :   -0.400123
   2 C :    0.137956
   3 C :    0.067596
   4 C :    0.083806
   5 C :   -0.292752
   6 C :    0.199262
   7 C :   -0.273455
   8 C :    0.195578
   9 C :   -0.260004
  10 C :    0.255983
  11 C :   -0.236167
  12 C :   -0.228463
  13 C :   -0.149939
  14 C :   -0.204137
  15 C :   -0.222922
  16 C :   -0.153679
  17 C :   -0.079547
  18 C :   -0.262853
  19 C :   -0.267192
  20 H :    0.136547
  21 H :    0.110353
  22 H :    0.153932
  23 H :    0.125823
  24 H :    0.117087
  25 H :    0.107999
  26 H :    0.108010
  27 H :    0.096241
  28 H :    0.111492
  29 H :    0.104742
  30 H :    0.117611
  31 H :    0.100432
  32 H :    0.319980
  33 H :    0.323579
  34 H :    0.124958
  35 H :    0.123533
  36 H :    0.108279
  37 H :    0.097182
Sum of atomic charges:    0.0000000

--------------------------------
MULLIKEN REDUCED ORBITAL CHARGES
--------------------------------
  0 O s       :     3.765531  s :     3.765531
      pz      :     1.473243  p :     4.598637
      px      :     1.399966
      py      :     1.725428
      dz2     :     0.009789  d :     0.030856
      dxz     :     0.004075
      dyz     :     0.007048
      dx2y2   :     0.004839
      dxy     :     0.005105
      f0      :     0.000261  f :     0.001700
      f+1     :     0.000352
      f-1     :     0.000279
      f+2     :     0.000216
      f-2     :     0.000183
      f+3     :     0.000100
      f-3     :     0.000309

  1 O s       :     3.764023  s :     3.764023
      pz      :     1.535574  p :     4.603767
      px      :     1.336802
      py      :     1.731391
      dz2     :     0.005479  d :     0.030632
      dxz     :     0.011961
      dyz     :     0.004053
      dx2y2   :     0.004434
      dxy     :     0.004705
      f0      :     0.000019  f :     0.001702
      f+1     :     0.000368
      f-1     :     0.000072
      f+2     :     0.000251
      f-2     :     0.000259
      f+3     :     0.000321
      f-3     :     0.000412

  2 C s       :     3.233120  s :     3.233120
      pz      :     0.836571  p :     2.511769
      px      :     0.753267
      py      :     0.921931
      dz2     :     0.022259  d :     0.107470
      dxz     :     0.025398
      dyz     :     0.018524
      dx2y2   :     0.020095
      dxy     :     0.021195
      f0      :     0.001550  f :     0.009685
      f+1     :     0.001469
      f-1     :     0.001332
      f+2     :     0.001546
      f-2     :     0.001417
      f+3     :     0.001210
      f-3     :     0.001163

  3 C s       :     3.273997  s :     3.273997
      pz      :     0.854459  p :     2.529139
      px      :     0.736217
      py      :     0.938463
      dz2     :     0.027781  d :     0.119499
      dxz     :     0.027206
      dyz     :     0.021644
      dx2y2   :     0.020893
      dxy     :     0.021975
      f0      :     0.001580  f :     0.009769
      f+1     :     0.002303
      f-1     :     0.000817
      f+2     :     0.001248
      f-2     :     0.001641
      f+3     :     0.001073
      f-3     :     0.001107

  4 C s       :     3.210047  s :     3.210047
      pz      :     0.801397  p :     2.577642
      px      :     0.842448
      py      :     0.933797
      dz2     :     0.032118  d :     0.118859
      dxz     :     0.026436
      dyz     :     0.019356
      dx2y2   :     0.019494
      dxy     :     0.021455
      f0      :     0.001655  f :     0.009647
      f+1     :     0.002136
      f-1     :     0.000859
      f+2     :     0.001431
      f-2     :     0.001347
      f+3     :     0.001348
      f-3     :     0.000870

  5 C s       :     3.236764  s :     3.236764
      pz      :     1.028916  p :     2.961976
      px      :     0.957836
      py      :     0.975224
      dz2     :     0.018863  d :     0.086344
      dxz     :     0.018631
      dyz     :     0.010080
      dx2y2   :     0.015690
      dxy     :     0.023079
      f0      :     0.000851  f :     0.007669
      f+1     :     0.001481
      f-1     :     0.000683
      f+2     :     0.000992
      f-2     :     0.001265
      f+3     :     0.001392
      f-3     :     0.001004

  6 C s       :     3.148755  s :     3.148755
      pz      :     0.804602  p :     2.519401
      px      :     0.832027
      py      :     0.882772
      dz2     :     0.027990  d :     0.122756
      dxz     :     0.028848
      dyz     :     0.022227
      dx2y2   :     0.026839
      dxy     :     0.016852
      f0      :     0.001269  f :     0.009826
      f+1     :     0.001882
      f-1     :     0.001532
      f+2     :     0.001520
      f-2     :     0.001217
      f+3     :     0.001352
      f-3     :     0.001053

  7 C s       :     3.238924  s :     3.238924
      pz      :     0.979832  p :     2.942949
      px      :     0.970373
      py      :     0.992744
      dz2     :     0.018597  d :     0.083964
      dxz     :     0.019921
      dyz     :     0.018079
      dx2y2   :     0.011156
      dxy     :     0.016211
      f0      :     0.001435  f :     0.007618
      f+1     :     0.001291
      f-1     :     0.000772
      f+2     :     0.000962
      f-2     :     0.001413
      f+3     :     0.001204
      f-3     :     0.000542

  8 C s       :     3.066073  s :     3.066073
      pz      :     0.750947  p :     2.552829
      px      :     0.919918
      py      :     0.881964
      dz2     :     0.040372  d :     0.169886
      dxz     :     0.035556
      dyz     :     0.036689
      dx2y2   :     0.031321
      dxy     :     0.025948
      f0      :     0.003042  f :     0.015634
      f+1     :     0.002698
      f-1     :     0.002642
      f+2     :     0.002357
      f-2     :     0.001965
      f+3     :     0.001673
      f-3     :     0.001257

  9 C s       :     3.252460  s :     3.252460
      pz      :     0.951316  p :     2.914185
      px      :     0.995477
      py      :     0.967392
      dz2     :     0.015285  d :     0.086083
      dxz     :     0.030754
      dyz     :     0.012108
      dx2y2   :     0.016273
      dxy     :     0.011664
      f0      :     0.001376  f :     0.007275
      f+1     :     0.001360
      f-1     :     0.000748
      f+2     :     0.001178
      f-2     :     0.000751
      f+3     :     0.001220
      f-3     :     0.000642

 10 C s       :     3.046727  s :     3.046727
      pz      :     0.881928  p :     2.510464
      px      :     0.736265
      py      :     0.892270
      dz2     :     0.033556  d :     0.171253
      dxz     :     0.049282
      dyz     :     0.025659
      dx2y2   :     0.029053
      dxy     :     0.033703
      f0      :     0.002266  f :     0.015574
      f+1     :     0.003276
      f-1     :     0.000994
      f+2     :     0.001842
      f-2     :     0.002686
      f+3     :     0.002550
      f-3     :     0.001959

 11 C s       :     3.282410  s :     3.282410
      pz      :     0.985404  p :     2.868697
      px      :     0.971512
      py      :     0.911781
      dz2     :     0.013619  d :     0.079645
      dxz     :     0.012432
      dyz     :     0.019451
      dx2y2   :     0.012610
      dxy     :     0.021534
      f0      :     0.000518  f :     0.005415
      f+1     :     0.001104
      f-1     :     0.000351
      f+2     :     0.000538
      f-2     :     0.001079
      f+3     :     0.000735
      f-3     :     0.001090

 12 C s       :     3.263848  s :     3.263848
      pz      :     0.883533  p :     2.877093
      px      :     1.008291
      py      :     0.985268
      dz2     :     0.029953  d :     0.081973
      dxz     :     0.013890
      dyz     :     0.016565
      dx2y2   :     0.016968
      dxy     :     0.004597
      f0      :     0.001079  f :     0.005549
      f+1     :     0.001129
      f-1     :     0.001135
      f+2     :     0.000775
      f-2     :     0.000481
      f+3     :     0.000594
      f-3     :     0.000355

 13 C s       :     3.215730  s :     3.215730
      pz      :     0.940183  p :     2.846043
      px      :     0.950864
      py      :     0.954997
      dz2     :     0.022168  d :     0.080786
      dxz     :     0.018030
      dyz     :     0.017644
      dx2y2   :     0.013576
      dxy     :     0.009368
      f0      :     0.001386  f :     0.007380
      f+1     :     0.000948
      f-1     :     0.001220
      f+2     :     0.001233
      f-2     :     0.001133
      f+3     :     0.000586
      f-3     :     0.000875

 14 C s       :     3.270661  s :     3.270661
      pz      :     0.961123  p :     2.850862
      px      :     0.910389
      py      :     0.979350
      dz2     :     0.013447  d :     0.075012
      dxz     :     0.018243
      dyz     :     0.009925
      dx2y2   :     0.012789
      dxy     :     0.020608
      f0      :     0.000768  f :     0.007603
      f+1     :     0.001470
      f-1     :     0.000727
      f+2     :     0.000983
      f-2     :     0.001284
      f+3     :     0.001352
      f-3     :     0.001019

 15 C s       :     3.273604  s :     3.273604
      pz      :     0.946269  p :     2.869561
      px      :     0.945290
      py      :     0.978001
      dz2     :     0.015296  d :     0.072175
      dxz     :     0.016241
      dyz     :     0.015899
      dx2y2   :     0.012202
      dxy     :     0.012536
      f0      :     0.001376  f :     0.007582
      f+1     :     0.001285
      f-1     :     0.000775
      f+2     :     0.000995
      f-2     :     0.001421
      f+3     :     0.001170
      f-3     :     0.000560

 16 C s       :     3.245156  s :     3.245156
      pz      :     0.977607  p :     2.822146
      px      :     0.949096
      py      :     0.895443
      dz2     :     0.004298  d :     0.079602
      dxz     :     0.019378
      dyz     :     0.012040
      dx2y2   :     0.013199
      dxy     :     0.030686
      f0      :     0.001052  f :     0.006775
      f+1     :     0.000379
      f-1     :     0.000490
      f+2     :     0.001006
      f-2     :     0.000702
      f+3     :     0.001418
      f-3     :     0.001728

 17 C s       :     3.215005  s :     3.215005
      pz      :     0.927346  p :     2.779577
      px      :     0.927495
      py      :     0.924736
      dz2     :     0.025838  d :     0.077950
      dxz     :     0.010510
      dyz     :     0.009397
      dx2y2   :     0.018774
      dxy     :     0.013431
      f0      :     0.000731  f :     0.007016
      f+1     :     0.001524
      f-1     :     0.000807
      f+2     :     0.001175
      f-2     :     0.001089
      f+3     :     0.000963
      f-3     :     0.000727

 18 C s       :     3.266663  s :     3.266663
      pz      :     1.001638  p :     2.948802
      px      :     0.912472
      py      :     1.034692
      dz2     :     0.003609  d :     0.042669
      dxz     :     0.011065
      dyz     :     0.001743
      dx2y2   :     0.005756
      dxy     :     0.020496
      f0      :     0.000965  f :     0.004718
      f+1     :     0.000287
      f-1     :     0.000310
      f+2     :     0.000602
      f-2     :     0.000468
      f+3     :     0.001092
      f-3     :     0.000994

 19 C s       :     3.263339  s :     3.263339
      pz      :     0.989394  p :     2.958288
      px      :     0.975096
      py      :     0.993798
      dz2     :     0.009870  d :     0.040697
      dxz     :     0.007493
      dyz     :     0.004938
      dx2y2   :     0.007054
      dxy     :     0.011341
      f0      :     0.000341  f :     0.004869
      f+1     :     0.001251
      f-1     :     0.000415
      f+2     :     0.000635
[...]
      f+2     :     0.005856
      f-2     :     0.007466
      f+3     :     0.007187
      f-3     :     0.005557

 15 C s       :     2.758883  s :     2.758883
      pz      :     1.012036  p :     2.951287
      px      :     0.992910
      py      :     0.946341
      dz2     :     0.075645  d :     0.366117
      dxz     :     0.102683
      dyz     :     0.076870
      dx2y2   :     0.051245
      dxy     :     0.059675
      f0      :     0.007743  f :     0.042989
      f+1     :     0.008177
      f-1     :     0.006190
      f+2     :     0.005733
      f-2     :     0.005085
      f+3     :     0.005562
      f-3     :     0.004501

 16 C s       :     2.798872  s :     2.798872
      pz      :     0.892200  p :     2.956418
      px      :     1.084415
      py      :     0.979804
      dz2     :     0.027641  d :     0.399530
      dxz     :     0.076958
      dyz     :     0.053890
      dx2y2   :     0.099841
      dxy     :     0.141200
      f0      :     0.003782  f :     0.041389
      f+1     :     0.003993
      f-1     :     0.003325
      f+2     :     0.006961
      f-2     :     0.003827
      f+3     :     0.008683
      f-3     :     0.010819

 17 C s       :     2.796686  s :     2.796686
      pz      :     0.994967  p :     2.952101
      px      :     0.930649
      py      :     1.026485
      dz2     :     0.114247  d :     0.396749
      dxz     :     0.072433
      dyz     :     0.073462
      dx2y2   :     0.092409
      dxy     :     0.044199
      f0      :     0.005873  f :     0.041803
      f+1     :     0.006308
      f-1     :     0.006905
      f+2     :     0.008125
      f-2     :     0.006791
      f+3     :     0.003697
      f-3     :     0.004104

 18 C s       :     2.858028  s :     2.858028
      pz      :     0.972249  p :     3.087964
      px      :     1.097050
      py      :     1.018665
      dz2     :     0.014428  d :     0.241621
      dxz     :     0.053481
      dyz     :     0.011425
      dx2y2   :     0.061245
      dxy     :     0.101042
      f0      :     0.003572  f :     0.027980
      f+1     :     0.003055
      f-1     :     0.000836
      f+2     :     0.004521
      f-2     :     0.002772
      f+3     :     0.006682
      f-3     :     0.006541

 19 C s       :     2.855484  s :     2.855484
      pz      :     1.044074  p :     3.097799
      px      :     1.000714
      py      :     1.053012
      dz2     :     0.055791  d :     0.239662
      dxz     :     0.047543
      dyz     :     0.049023
      dx2y2   :     0.063703
      dxy     :     0.023601
      f0      :     0.003427  f :     0.028245
      f+1     :     0.004174
      f-1     :     0.004878
      f+2     :     0.004974
      f-2     :     0.005342
      f+3     :     0.002298
      f-3     :     0.003151

 20 H s       :     0.788370  s :     0.788370
      pz      :     0.029341  p :     0.058935
      px      :     0.010670
      py      :     0.018924

 21 H s       :     0.788131  s :     0.788131
      pz      :     0.018970  p :     0.058922
      px      :     0.017513
      py      :     0.022439

 22 H s       :     0.788495  s :     0.788495
      pz      :     0.019364  p :     0.059193
      px      :     0.026621
      py      :     0.013208

 23 H s       :     0.791590  s :     0.791590
      pz      :     0.017514  p :     0.057892
      px      :     0.022341
      py      :     0.018036

 24 H s       :     0.788527  s :     0.788527
      pz      :     0.026017  p :     0.057903
      px      :     0.013687
      py      :     0.018198

 25 H s       :     0.796706  s :     0.796706
      pz      :     0.011837  p :     0.057509
      px      :     0.012628
      py      :     0.033045

 26 H s       :     0.795624  s :     0.795624
      pz      :     0.011983  p :     0.057335
      px      :     0.029249
      py      :     0.016103

 27 H s       :     0.798113  s :     0.798113
      pz      :     0.013214  p :     0.058142
      px      :     0.028741
      py      :     0.016186

 28 H s       :     0.790988  s :     0.790988
      pz      :     0.029281  p :     0.059360
      px      :     0.010806
      py      :     0.019273

 29 H s       :     0.793194  s :     0.793194
      pz      :     0.019643  p :     0.059293
      px      :     0.016815
      py      :     0.022835

 30 H s       :     0.797044  s :     0.797044
      pz      :     0.017287  p :     0.058820
      px      :     0.019630
      py      :     0.021904

 31 H s       :     0.802345  s :     0.802345
      pz      :     0.011557  p :     0.058269
      px      :     0.013286
      py      :     0.033426

 32 H s       :     0.658705  s :     0.658705
      pz      :     0.030452  p :     0.156801
      px      :     0.076372
      py      :     0.049977

 33 H s       :     0.657116  s :     0.657116
      pz      :     0.071234  p :     0.159792
      px      :     0.047747
      py      :     0.040812

 34 H s       :     0.814112  s :     0.814112
      pz      :     0.016781  p :     0.062046
      px      :     0.013538
      py      :     0.031727

 35 H s       :     0.815195  s :     0.815195
      pz      :     0.018501  p :     0.061670
      px      :     0.020884
      py      :     0.022285

 36 H s       :     0.819676  s :     0.819676
      pz      :     0.024650  p :     0.061611
      px      :     0.020892
      py      :     0.016069

 37 H s       :     0.820872  s :     0.820872
      pz      :     0.012156  p :     0.061269
      px      :     0.014180
      py      :     0.034933



                      *****************************
                      * MAYER POPULATION ANALYSIS *
                      *****************************

  NA   - Mulliken gross atomic population
  ZA   - Total nuclear charge
  QA   - Mulliken gross atomic charge
  VA   - Mayer's total valence
  BVA  - Mayer's bonded valence
  FA   - Mayer's free valence

  ATOM       NA         ZA         QA         VA         BVA        FA
  0 O      8.3955     8.0000    -0.3955     2.0894     2.0894     0.0000
  1 O      8.3990     8.0000    -0.3990     2.0854     2.0854     0.0000
  2 C      5.8474     6.0000     0.1526     3.3189     3.3189     0.0000
  3 C      5.9411     6.0000     0.0589     3.7143     3.7143     0.0000
  4 C      5.9141     6.0000     0.0859     3.4873     3.4873     0.0000
  5 C      6.2779     6.0000    -0.2779     3.9697     3.9697     0.0000
  6 C      5.8682     6.0000     0.1318     3.7180     3.7180    -0.0000
  7 C      6.2579     6.0000    -0.2579     3.8774     3.8774     0.0000
  8 C      5.8057     6.0000     0.1943     4.0039     4.0039     0.0000
  9 C      6.2503     6.0000    -0.2503     3.8755     3.8755     0.0000
 10 C      5.7442     6.0000     0.2558     3.9468     3.9468     0.0000
 11 C      6.2501     6.0000    -0.2501     3.9192     3.9192     0.0000
 12 C      6.1971     6.0000    -0.1971     3.8729     3.8729     0.0000
 13 C      6.1390     6.0000    -0.1390     3.9240     3.9240    -0.0000
 14 C      6.1978     6.0000    -0.1978     3.9167     3.9167     0.0000
 15 C      6.2272     6.0000    -0.2272     3.9658     3.9658    -0.0000
 16 C      6.1462     6.0000    -0.1462     3.8140     3.8140     0.0000
 17 C      6.0878     6.0000    -0.0878     3.8341     3.8341     0.0000
 18 C      6.2647     6.0000    -0.2647     3.9079     3.9079     0.0000
 19 C      6.2657     6.0000    -0.2657     3.9377     3.9377     0.0000
 20 H      0.8766     1.0000     0.1234     0.9807     0.9807    -0.0000
 21 H      0.8816     1.0000     0.1184     0.9834     0.9834     0.0000
 22 H      0.8548     1.0000     0.1452     0.9679     0.9679     0.0000
 23 H      0.8703     1.0000     0.1297     0.9637     0.9637     0.0000
 24 H      0.8825     1.0000     0.1175     0.9742     0.9742    -0.0000
 25 H      0.8974     1.0000     0.1026     0.9702     0.9702     0.0000
 26 H      0.8941     1.0000     0.1059     0.9686     0.9686     0.0000
 27 H      0.9046     1.0000     0.0954     0.9735     0.9735    -0.0000
 28 H      0.8882     1.0000     0.1118     0.9886     0.9886     0.0000
 29 H      0.8950     1.0000     0.1050     0.9890     0.9890    -0.0000
 30 H      0.8825     1.0000     0.1175     0.9772     0.9772    -0.0000
 31 H      0.8982     1.0000     0.1018     0.9750     0.9750    -0.0000
 32 H      0.6779     1.0000     0.3221     0.9201     0.9201     0.0000
 33 H      0.6771     1.0000     0.3229     0.9234     0.9234     0.0000
 34 H      0.8754     1.0000     0.1246     0.9756     0.9756     0.0000
 35 H      0.8764     1.0000     0.1236     0.9758     0.9758    -0.0000
 36 H      0.8913     1.0000     0.1087     0.9742     0.9742     0.0000
 37 H      0.8993     1.0000     0.1007     0.9779     0.9779     0.0000

  Mayer bond orders larger than 0.100000
B(  0-O ,  8-C ) :   1.1567 B(  0-O , 32-H ) :   0.8657 B(  1-O , 10-C ) :   1.1328 
B(  1-O , 33-H ) :   0.8619 B(  2-C ,  3-C ) :   0.8597 B(  2-C ,  7-C ) :   1.3193 
B(  2-C ,  8-C ) :   1.2357 B(  3-C ,  5-C ) :   1.4240 B(  3-C ,  9-C ) :   1.3281 
B(  4-C ,  5-C ) :   1.3456 B(  4-C , 10-C ) :   1.2623 B(  4-C , 11-C ) :   0.9042 
B(  5-C , 20-H ) :   0.9530 B(  6-C ,  7-C ) :   1.3853 B(  6-C , 12-C ) :   0.9087 
B(  6-C , 13-C ) :   1.3667 B(  7-C , 21-H ) :   0.9707 B(  8-C , 15-C ) :   1.4227 
B(  9-C , 14-C ) :   1.4106 B(  9-C , 22-H ) :   0.9840 B( 10-C , 14-C ) :   1.4064 
B( 11-C , 16-C ) :   0.9564 B( 11-C , 23-H ) :   0.9788 B( 11-C , 24-H ) :   0.9664 
B( 12-C , 17-C ) :   0.9656 B( 12-C , 25-H ) :   0.9661 B( 12-C , 26-H ) :   0.9728 
B( 13-C , 15-C ) :   1.4213 B( 13-C , 27-H ) :   0.9768 B( 14-C , 28-H ) :   0.9825 
B( 15-C , 29-H ) :   0.9829 B( 16-C , 18-C ) :   1.8941 B( 16-C , 30-H ) :   0.9564 
B( 17-C , 19-C ) :   1.9261 B( 17-C , 31-H ) :   0.9549 B( 18-C , 34-H ) :   0.9673 
B( 18-C , 35-H ) :   0.9637 B( 19-C , 36-H ) :   0.9660 B( 19-C , 37-H ) :   0.9627 


-------
TIMINGS
-------

Total SCF time: 0 days 0 hours 0 min 15 sec 

Total time                  ....      15.313 sec
Sum of individual times     ....      15.228 sec  ( 99.4%)

SCF preparation             ....       0.610 sec  (  4.0%)
Fock matrix formation       ....      13.665 sec  ( 89.2%)
  Startup                   ....       0.027 sec  (  0.2% of F)
  Split-RI-J                ....       0.777 sec  (  5.7% of F)
  Chain of spheres X        ....      11.881 sec  ( 86.9% of F)
  XC integration            ....       0.916 sec  (  6.7% of F)
    Basis function eval.    ....       0.192 sec  ( 21.0% of XC)
    Density eval.           ....       0.260 sec  ( 28.4% of XC)
    XC-Functional eval.     ....       0.016 sec  (  1.8% of XC)
    XC-Potential eval.      ....       0.361 sec  ( 39.4% of XC)
Diagonalization             ....       0.000 sec  (  0.0%)
Density matrix formation    ....       0.063 sec  (  0.4%)
Total Energy calculation    ....       0.041 sec  (  0.3%)
Population analysis         ....       0.146 sec  (  1.0%)
Orbital Transformation      ....       0.150 sec  (  1.0%)
Orbital Orthonormalization  ....       0.000 sec  (  0.0%)
DIIS solution               ....       0.181 sec  (  1.2%)
SOSCF solution              ....       0.372 sec  (  2.4%)
Finished LeanSCF after  15.4 sec

Maximum memory used throughout the entire LEANSCF-calculation: 105.4 MB

-------------------------   --------------------
FINAL SINGLE POINT ENERGY      -846.968439300085
-------------------------   --------------------

                                *** OPTIMIZATION RUN DONE ***



           ************************************************************
           *        Program running with 20 parallel MPI-processes    *
           *              working on a common directory               *
           ************************************************************

------------------------------------------------------------------------------
                              ORCA PROPERTY CALCULATIONS
------------------------------------------------------------------------------

GBWName                                 ... honokiol3.gbw
Number of atoms                         ...     38
Number of basis functions               ...    728
Max core memory                         ...   5000 MB

Electric properties:
Dipole moment                           ... YES
Quadrupole moment                       ...  NO
Static polarizability (Dipole/Dipole)   ...  NO
Static polarizability (Dipole/Quad.)    ...  NO
Static polarizability (Quad./Quad.)     ...  NO
Static polarizability (Velocity)        ...  NO

Atomic electric properties:
Dipole moment                           ...  NO
Quadrupole moment                       ...  NO
Static polarizability                   ...  NO

Choice of electric origin               ... Center of mass
Position of electric origin             ...    -0.086374    -1.133093    -0.021745

General magnetic properties:
Magnetizability                         ...  NO

EPR properties:
g-Tensor (aka g-matrix)                 ...  NO
Zero-Field splitting spin-orbit         ...  NO
Zero-field splitting spin-spin          ...  NO
Hyperfine couplings                     ...  NO (   0 nuclei)
Quadrupole couplings                    ...  NO (   0 nuclei)
Contact density                         ...  NO (   0 nuclei)

NMR properties:
Chemical shifts                         ...  NO (   0 nuclei)
Spin-rotation constants                 ...  NO (   0 nuclei)
Spin-spin couplings                     ...  NO (   0 nuclei,    0 pairs)

Choice of magnetic origin               ... GIAO
Position of magnetic origin             ...     0.000000     0.000000     0.000000

Properties with geometric perturbations:
SCF Hessian                             ...  NO
IR spectrum                             ...  NO
VCD spectrum                            ...  NO
X-ray spectroscopy properties:
SCF XES/XAS/RIXS spectra                ...  NO


-------------
DIPOLE MOMENT
-------------

Method             : SCF
Type of density    : Electron Density
Multiplicity       :   1
Irrep              :   0
Energy             :  -846.9684393000853788 Eh
Relativity type    : 
Basis              : AO
                                X                 Y                 Z
Electronic contribution:      2.922013843       2.390322080      12.653718899
Nuclear contribution   :     -3.774486976      -2.733069677     -13.353444648
                        -----------------------------------------
Total Dipole Moment    :     -0.852473133      -0.342747596      -0.699725750
                        -----------------------------------------
Magnitude (a.u.)       :      1.154903668
Magnitude (Debye)      :      2.935531833



--------------------
Rotational spectrum 
--------------------
 
Rotational constants in cm-1:             0.016393             0.006213             0.004751 
Rotational constants in MHz :           491.457273           186.257998           142.438346 

Dipole components along the rotational axes: 
x,y,z [a.u.] :    -0.672934    -0.934391     0.088747 
x,y,z [Debye]:    -1.710463    -2.375032     0.225578 

 

Dipole moment calculation done in   0.0 sec 

Maximum memory used throughout the entire PROP-calculation: 57.3 MB

--------------------------------
SUGGESTED CITATIONS FOR THIS RUN
--------------------------------

Below you find a list of papers that are relevant to this ORCA run
We neither can nor want to force you to cite these papers, but we appreciate if you do
You receive ORCA, which is the product of decades of hard work by many enthusiastic individuals, for free
The only thing we kindly ask in return is that you cite our papers,
We deeply appreciate it, if you show your appreciation for ORCA by not just citing the generic ORCA reference.

Please note that relegating all ORCA citations to the supporting information does *not* help us.
SI sections are not indexed - citations you put there will not count into any citation statistics
But we need these citations in order to attract the funding resources that allow us to do what we are doing

Therefore, if you are a happy ORCA user, please consider citing a few of the papers listed below in the main body of your paper

In addition to the list printed below, the program has created the file honokiol3.bibtex that contains the list in bibtex format
You can import this file easily into all common literature databanks and citation aid programs


List of essential papers. We consider these as the minimum necessary citations

  1. Neese,F.
     Software update: the ORCA program system, version 5.0
     WIRES Comput. Molec. Sci., 2022 12(1)e1606
     doi.org/10.1002/wcms.1606

List of papers to cite with high priority. The work reported in these papers was absolutely
necessary for this run to complete.
Our perspective: the developers of density functionals and basis sets usually get cited in chemistry papers
Good! But without the algorithms to do something with them, the functionals or basis sets would not do anything.
Hence, in our opinion, the algorithm design and method developments papers are equally worthy of getting cited

  1. Neese,F.
     An improvement of the resolution of the identity approximation for the formation of the Coulomb matrix
     J. Comp. Chem., 2003 24(14)1740-1747
     doi.org/10.1002/jcc.10318
  2. Neese,F.; Wennmohs,F.; Hansen,A.; Becker,U.
     Efficient, approximate and parallel Hartree-Fock and hybrid DFT calculations. A 'chain-of-spheres' algorithm for the Hartree-Fock exchange
     Chem. Phys., 2009 356(1-3)98-109
     doi.org/10.1016/j.chemphys.2008.10.036
  3. Helmich-Paris,B.; de Souza,B.; Neese,F.; Izsák,R.
     An improved chain of spheres for exchange algorithm
     J. Chem. Phys., 2021 155 104109
     doi.org/doi: 10.1063/5.0058766.
  4. Neese,F.
     The SHARK Integral Generation and Digestion System
     J. Comp. Chem., 2022  1-16
     doi.org/10.1002/jcc.26942

List of suggested additional citations. These are papers that are important in the 'surrounding' of 
of this run, or papers that preceded the highly important papers. If you like your results we are grateful for a citation.

  1. Izsak,R.; Neese,F.
     An overlap fitted chain of spheres exchange method
     J. Chem. Phys., 2011 135 144105
     doi.org/10.1063/1.3646921
  2. Izsak,R.; Hansen,A.; Neese,F.
     The resolution of identity and chain of spheres approximations for the LPNO-CCSD singles Fock term
     Molec. Phys., 2012 110 2413-2417
     doi.org/10.1080/00268976.2012.687466
  3. Neese,F.
     The ORCA program system
     WIRES Comput. Molec. Sci., 2012 2(1)73-78
     doi.org/10.1002/wcms.81
  4. Izsak,R.; Neese,F.; Klopper,W.
     Robust fitting techniques in the chain of spheres approximation to the Fock exchange: The role of the complementary space
     J. Chem. Phys., 2013 139 
     doi.org/10.1063/1.4819264
  5. Neese,F.
     Software update: the ORCA program system, version 4.0
     WIRES Comput. Molec. Sci., 2018 8(1)1-6
     doi.org/10.1002/wcms.1327
  6. Neese,F.; Wennmohs,F.; Becker,U.; Riplinger,C.
     The ORCA quantum chemistry program package
     J. Chem. Phys., 2020 152 Art. No. L224108
     doi.org/10.1063/5.0004608

List of optional additional citations

  1. Neese,F.
     Approximate second-order SCF convergence for spin unrestricted wavefunctions
     Chem. Phys. Lett., 2000 325(1-3)93-98
     doi.org/10.1016/s0009-2614(00)00662-x

Timings for individual modules:

Sum of individual times          ...      659.938 sec (=  10.999 min)
Startup calculation              ...       42.491 sec (=   0.708 min)   6.4 %
SCF iterations                   ...      420.637 sec (=   7.011 min)  63.7 %
Property calculations            ...        0.861 sec (=   0.014 min)   0.1 %
SCF Gradient evaluation          ...      195.807 sec (=   3.263 min)  29.7 %
Geometry relaxation              ...        0.141 sec (=   0.002 min)   0.0 %
                             ****ORCA TERMINATED NORMALLY****
TOTAL RUN TIME: 0 days 0 hours 11 minutes 10 seconds 419 msec
