
                                 *****************
                                 * O   R   C   A *
                                 *****************

                                            #,                                       
                                            ###                                      
                                            ####                                     
                                            #####                                    
                                            ######                                   
                                           ########,                                 
                                     ,,################,,,,,                         
                               ,,#################################,,                 
                          ,,##########################################,,             
                       ,#########################################, ''#####,          
                    ,#############################################,,   '####,        
                  ,##################################################,,,,####,       
                ,###########''''           ''''###############################       
              ,#####''   ,,,,##########,,,,          '''####'''          '####       
            ,##' ,,,,###########################,,,                        '##       
           ' ,,###''''                  '''############,,,                           
         ,,##''                                '''############,,,,        ,,,,,,###''
      ,#''                                            '''#######################'''  
     '                                                          ''''####''''         
             ,#######,   #######,   ,#######,      ##                                
            ,#'     '#,  ##    ##  ,#'     '#,    #''#        ,####,   ,####,        
            ##       ##  ##   ,#'  ##            #'  '#       #'       #'  '#        
            ##       ##  #######   ##           ,######,      #####,   #    #        
            '#,     ,#'  ##    ##  '#,     ,#' ,#      #,     #,   #   #,  ,#        
             '#######'   ##     ##  '#######'  #'      '#     '####' # '####'        



                #########################################################
                #                        -***-                          #
                #          Department of theory and spectroscopy        #
                #                                                       #
                #                      Frank Neese                      #
                #                                                       #
                #     Directorship, Architecture, Infrastructure        #
                #                    SHARK, DRIVERS                     #
                #        Core code/Algorithms in most modules           #
                #                                                       #
                #        Max Planck Institute fuer Kohlenforschung      #
                #                Kaiser Wilhelm Platz 1                 #
                #                 D-45470 Muelheim/Ruhr                 #
                #                      Germany                          #
                #                                                       #
                #                  All rights reserved                  #
                #                        -***-                          #
                #########################################################


                         Program Version 6.0.1  -  RELEASE   -


 With contributions from (in alphabetic order):
[Max-Planck-Institut fuer Kohlenforschung]                               
  Daniel Aravena         : Magnetic Suceptibility                        
  Michael Atanasov       : Ab Initio Ligand Field Theory (pilot matlab implementation)
  Alexander A. Auer      : GIAO ZORA, VPT2 properties, NMR spectrum      
  Ute Becker             : All parallelization in ORCA, NUMFREQ, NUMCALC 
  Giovanni Bistoni       : ED, misc. LED, open-shell LED, HFLD           
  Martin Brehm           : Molecular dynamics                            
  Dmytro Bykov           : pre 5.0 version of the SCF Hessian            
  Marcos Casanova-Páez   : Triplet and SCS-CIS(D). UHF-(DLPNO)-IP/EA/STEOM-CCSD. UHF-CVS-IP/STEOM-CCSD   
  Vijay G. Chilkuri      : MRCI spin determinant printing, contributions to CSF-ICE 
  Pauline Colinet        : FMM embedding                                 
  Dipayan Datta          : RHF DLPNO-CCSD density                        
  Achintya Kumar Dutta   : EOM-CC, STEOM-CC                              
  Nicolas Foglia         : Exact transition moments, OPA infrastructure, MCD improvements    
  Dmitry Ganyushin       : Spin-Orbit,Spin-Spin,Magnetic field MRCI      
  Miquel Garcia-Rates    : C-PCM and meta-GGA Hessian, CCSD/C-PCM, Gaussian charge scheme 
  Tiago L. C. Gouveia    : GS-ROHF, GS-ROCIS                             
  Yang Guo               : DLPNO-NEVPT2, F12-NEVPT2, CIM, IAO-localization        
  Andreas Hansen         : Spin unrestricted coupled pair/coupled cluster methods 
  Ingolf Harden          : AUTO-CI MPn and infrastructure                
  Benjamin Helmich-Paris : MC-RPA, TRAH-(SCF,CASSCF), AVAS, COSX integrals, SCF dyn. polar. 
  Lee Huntington         : MR-EOM, pCC                                   
  Robert Izsak           : Overlap fitted RIJCOSX, COSX-SCS-MP3, EOM     
  Riya Kayal             : Wick's Theorem for AUTO-CI, AUTO-CI UHF-CCSDT 
  Emily Kempfer          : AUTO-CI, RHF CISDT and CCSDT                  
  Christian Kollmar      : KDIIS, OOCD, Brueckner-CCSD(T), CCSD density, CASPT2, CASPT2-K, improved NEVPT2 
  Axel Koslowski         : Symmetry handling                             
  Simone Kossmann        : meta-GGA functionals, TD-DFT gradient, OOMP2, (MP2 Hessian; deprecated post 5.0) 
  Lucas Lang             : DCDCAS                                        
  Marvin Lechner         : AUTO-CI (C++ implementation), FIC-MRCC        
  Spencer Leger          : CASSCF response                               
  Dagmar Lenk            : GEPOL surface, SMD, ORCA-2-JSON               
  Dimitrios Liakos       : Extrapolation schemes; Compound Job, initial MDCI parallelization 
  Dimitrios Manganas     : Further ROCIS development; embedding schemes. LFT, Crystal Embedding 
  Dimitrios Pantazis     : SARC Basis sets                               
  Anastasios Papadopoulos: AUTO-CI, single reference methods and gradients 
  Taras Petrenko         : pre 6.0 DFT Hessian and TD-DFT gradient, (ASA, deprecated), ECA, 1-Electron XAS/XES, NRVS 
  Peter Pinski           : DLPNO-MP2, DLPNO-MP2 Gradient                 
  Christoph Reimann      : Effective Core Potentials                     
  Marius Retegan         : Local ZFS, SOC                                
  Christoph Riplinger    : Optimizer, TS searches, QM/MM, DLPNO-CCSD(T), (RO)-DLPNO pert. Triples 
  Michael Roemelt        : Original ROCIS implementation                 
  Masaaki Saitow         : Open-shell DLPNO-CCSD energy and density      
  Barbara Sandhoefer     : DKH picture change effects                    
  Kantharuban Sivalingam : CASSCF convergence/infrastructure, NEVPT2 and variants, FIC-MRCI 
  Bernardo de Souza      : ESD, SOC TD-DFT                               
  Georgi L. Stoychev     : AutoAux, RI-MP2 NMR, DLPNO-MP2 response, X2C  
  Van Anh Tran           : RI-MP2 g-tensors                              
  Willem Van den Heuvel  : Paramagnetic NMR                              
  Zikuan Wang            : NOTCH, Electric field optimization            
  Frank Wennmohs         : Technical directorship and infrastructure     
  Hang Xu                : AUTO-CI-Response properties                   
                                                                         
[FACCTs GmbH]                                                            
  Markus Bursch, Miquel Garcia-Rates, Christoph Riplinger, Bernardo de Souza, Georgi L. Stoychev 
                                                                 
  APM, Basis sets (HGBS, AHGBS, def-TZVP (Ac-Lr), def2-XVPD (La-Lu)), CI-OPT, improved COSX, DLPNO-Multilevel,           
  DOCKER, DRACO, updates on ESD, GOAT, IRC, LR-CPCM, MBIS, meta-GGA TD-DFT gradient, ML-optimized integration grids, 
  MM, NACMEs, nearIR, NEB, NEB-TS, NL-DFT gradient (VV10), 2- and 3-layer-ONIOM, interface openCOSMO-RS, QMMM,   
  Crystal-QMMM, SF, symmetry and pop. for TD-DFT, r2SCAN hybrids, SOLVATOR                                   
                                                                         
[Other institutions]                                                     
  V. Asgeirsson          : NEB                                           
  Christoph Bannwarth    : sTDA-DFT, sTD-DFT, PBEh-3c, B97-3c, D3        
  Sebastian Ehlert       : rSCAN, r2SCAN, r2SCAN-3c, D4, dhf basis sets  
  Marvin Friede          : D4 for Fr, Ra, Ac-Lr                          
  Lars Goerigk           : TD-DFT with DH, B97 family of functionals     
  Stefan Grimme          : VdW corrections, initial TS optimization, DFT functionals, gCP, sTDA/sTD-DF 
  Waldemar Hujo          : DFT-NL                                        
  H. Jonsson             : NEB                                           
  Holger Kruse           : gCP                                           
  Marcel Mueller         : wB97X-3c, vDZP basis set                      
  Hagen Neugebauer       : wr2SCAN                                       
  Tobias Risthaus        : range-separated hybrid DFT                    
  Lukas Wittmann         : regularized MP2, r2SCAN double-hybrids, wr2SCAN        
                                                                         
We gratefully acknowledge several colleagues who have allowed us to      
interface, adapt or use parts of their codes:                            
  Ed Valeev, F. Pavosevic, A. Kumar             : LibInt (2-el integral package), F12 methods 
  Garnet Chan, S. Sharma, J. Yang, R. Olivares  : DMRG                   
  Ulf Ekstrom                                   : XCFun DFT Library      
  Mihaly Kallay                                 : mrcc  (arbitrary order and MRCC methods)
  Frank Weinhold                                : gennbo (NPA and NBO analysis)           
  Simon Mueller                                 : openCOSMO-RS                            
  Christopher J. Cramer and Donald G. Truhlar   : smd solvation model                     
  S Lehtola, MJT Oliveira, MAL Marques          : LibXC Library                           
  Liviu Ungur et al                             : ANISO software                          


 Your calculation uses the libint2 library for the computation of 2-el integrals
 For citations please refer to: http://libint.valeyev.net

 Your ORCA version has been built with support for libXC version: 6.2.2
 For citations please refer to: https://libxc.gitlab.io

 This ORCA versions uses:
   CBLAS   interface :  Fast vector & matrix operations
   LAPACKE interface :  Fast linear algebra routines
   SCALAPACK package :  Parallel linear algebra routines
   Shared memory     :  Shared parallel matrices
   BLAS/LAPACK       :  OpenBLAS 0.3.27  USE64BITINT DYNAMIC_ARCH NO_AFFINITY SkylakeX SINGLE_THREADED
        Core in use  :  SkylakeX
   Copyright (c) 2011-2014, The OpenBLAS Project


NOTE: MaxCore=5000 MB was set to SCF,MP2,MDCI,CIPSI,MRCI and CIS
      => If you want to overwrite this, your respective input block should be placed after the MaxCore statement
Warning: RI is on but no J-basis has been assigned. Assigning Def2/J (nothing to worry about!)
================================================================================

----- Orbital basis set information -----
Your calculation utilizes the basis: def2-TZVP
   F. Weigend and R. Ahlrichs, Phys. Chem. Chem. Phys. 7, 3297 (2005).

----- AuxJ basis set information -----
Your calculation utilizes the auxiliary basis: def2/J
   F. Weigend, Phys. Chem. Chem. Phys. 8, 1057 (2006).

================================================================================
                                        WARNINGS
                       Please study these warnings very carefully!
================================================================================

WARNING: Old DensityContainer found on disk!
         Will remove this file - 
         If you want to keep old densities, please start your calculation with a different basename. 


WARNING: Geometry Optimization
  ===> : Switching off AutoStart
         For restart on a previous wavefunction, please use MOREAD

================================================================================
                                       INPUT FILE
================================================================================
NAME = honokiol2-opt_FEC.inp
|  1> ! OPT B3LYP def2-TZVP TightSCF
|  2> 
|  3> %maxcore 5000
|  4> 
|  5> %pal
|  6> nprocs 25
|  7> end
|  8> 
|  9> * xyz 0 1
| 10> O           1.58874889385723      1.83851586211085      2.18158572754868
| 11>   O          -3.67012529677869     -1.70327159825964      2.21669473058633
| 12>   C           1.32962719492519      0.21892317210287      0.37077954179091
| 13>   C           0.01484831321146     -0.28310134331662      0.84856299590582
| 14>   C          -2.35400028794839     -0.73176747355349      0.41708001671090
| 15>   C          -1.10661075553902     -0.25905975848658      0.01505772348015
| 16>   C           3.13565522290997      0.09249355846200     -1.27915886602412
| 17>   C           1.89373280464937     -0.30846485796972     -0.79433060323137
| 18>   C           2.04138068425509      1.21786877800107      1.06082666544278
| 19>   C          -0.13764740105095     -0.82711605596588      2.12731768064120
| 20>   C          -2.46893884082296     -1.26603649573672      1.70788826179897
| 21>   C          -3.55495907838976     -0.63285853971066     -0.50156267419599
| 22>   C           3.71995474721894     -0.52878028456398     -2.53450757998437
| 23>   C           3.82613634200217      1.06805800261205     -0.56092271155957
| 24>   C          -1.36315809142195     -1.32177606507855      2.54866567889149
| 25>   C           3.28756457077085      1.62593545808218      0.58798062689390
| 26>   C          -4.19057727647454     -1.96233179012724     -0.81651280983654
| 27>   C           2.86624457388774     -0.33235544864089     -3.75650028120829
| 28>   C          -5.47259212209981     -2.26261586475774     -0.62599238640333
| 29>   C           2.38478431418927     -1.30701342839992     -4.51909208870605
| 30>   H          -1.00937172386259      0.16840509775389     -0.97647221018386
| 31>   H           1.34343457485027     -1.07724242149022     -1.32552118375753
| 32>   H           0.71384166818737     -0.87962750953983      2.79396348207893
| 33>   H          -4.31001009430449      0.03369447855410     -0.07000412589802
| 34>   H          -3.22921377130236     -0.16776522919831     -1.43620564915757
| 35>   H           3.88880702542945     -1.59993506531883     -2.38384108624359
| 36>   H           4.70349291312436     -0.08138005280274     -2.71258260027932
| 37>   H           4.79849570295482      1.40178142587645     -0.90580537174155
| 38>   H          -1.47585680400982     -1.76150724782582      3.53154993170440
| 39>   H           3.81390338527176      2.39836639581392      1.13395449302092
| 40>   H          -3.52383252390136     -2.71799376993219     -1.22422035649891
| 41>   H           2.63753137110627      0.70068157179759     -4.00771084042196
| 42>   H           0.64812546989247      1.67740331230650      2.34977884131400
| 43>   H          -4.24811684104354     -1.98939673747306      1.49295549298672
| 44>   H          -5.87080106593547     -3.23719473162701     -0.87854809291734
| 45>   H          -6.17526608885844     -1.53489627444927     -0.23199448024411
| 46>   H           1.77823170075310     -1.09886812145825     -5.39188133937207
| 47>   H           2.58518086739440     -2.35072063968814     -4.30066183644929
| 48>   H          -5.04163509286989      0.92462832043408      3.17156777436495
| 49>   H          -3.80917446205089     -0.45101170536682      4.74117640115885
| 50>   O          -2.38990411243801      1.03349213559155      4.97361922592379
| 51>   C          -3.76186624272824      0.61428425511851      4.96460688366261
| 52>   C          -4.37877337237956      1.45459300958003      3.85132889721757
| 53>   C          -2.12437204121831      1.74583857233593      3.86358625100264
| 54>   O          -1.05520745157409      2.14648085887198      3.53804547413147
| 55>   O          -3.27214698793271      1.93826098829694      3.14162705965270
| 56>   F          -5.07808350594481      2.52179865169622      4.37236350815512
| 57>   H          -4.20982690456085      0.83306361413944      5.93131694134894
| 58> *
| 59> 
| 60>                          ****END OF INPUT****
================================================================================

                       *****************************
                       * Geometry Optimization Run *
                       *****************************

Geometry optimization settings:
Update method            Update   .... BFGS
Choice of coordinates    CoordSys .... (2022) Redundant Internals
Initial Hessian          InHess   .... Almloef's Model
Max. no of cycles        MaxIter  .... 144

Convergence Tolerances:
Energy Change            TolE     ....  5.0000e-06 Eh
Max. Gradient            TolMAXG  ....  3.0000e-04 Eh/bohr
RMS Gradient             TolRMSG  ....  1.0000e-04 Eh/bohr
Max. Displacement        TolMAXD  ....  4.0000e-03 bohr
RMS Displacement         TolRMSD  ....  2.0000e-03 bohr
Strict Convergence                .... False

------------------------------------------------------------------------------
                        ORCA OPTIMIZATION COORDINATE SETUP
------------------------------------------------------------------------------

The optimization will be done in redundant internal coordinates (2022)
Making redundant internal coordinates   ...  (2022 redundants) done
Evaluating the initial hessian          ...  (Almloef) done
Evaluating the coordinates              ...  done
Calculating the B-matrix                .... done
Calculating the G-matrix                .... done
Diagonalizing the G-matrix              .... done
Small eigenvalue found = 1.810e-03
Small eigenvalue found = 2.825e-03
Small eigenvalue found = 4.395e-03
Small eigenvalue found = 9.264e-03
Small eigenvalue found = 1.170e-02
Small eigenvalue found = 1.407e-02
Small eigenvalue found = 1.702e-02
Small eigenvalue found = 2.291e-02
The first mode is                       ....   98
The number of degrees of freedom        ....  138

    -----------------------------------------------------------------
                    Redundant Internal Coordinates


    -----------------------------------------------------------------
         Definition                    Initial Value    Approx d2E/dq
    -----------------------------------------------------------------
      1. B(C   3,C   2)                  1.4863         0.438705   
      2. B(C   5,C   4)                  1.3932         0.617455   
      3. B(C   5,C   3)                  1.3975         0.607838   
      4. B(C   7,C   6)                  1.3922         0.619786   
      5. B(C   7,C   2)                  1.3978         0.607155   
      6. B(C   8,C   2)                  1.4074         0.586204   
      7. B(C   8,O   0)                  1.3587         0.627691   
      8. B(C   9,C   3)                  1.3980         0.606688   
      9. B(C  10,C   4)                  1.4017         0.598450   
     10. B(C  10,O   1)                  1.3758         0.589499   
     11. B(C  11,C   4)                  1.5153         0.394372   
     12. B(C  12,C   6)                  1.5177         0.390902   
     13. B(C  13,C   6)                  1.3944         0.614777   
     14. B(C  14,C  10)                  1.3902         0.624248   
     15. B(C  14,C   9)                  1.3871         0.631444   
     16. B(C  15,C  13)                  1.3861         0.633819   
     17. B(C  15,C   8)                  1.3939         0.615812   
     18. B(C  16,C  11)                  1.5069         0.406683   
     19. B(C  17,C  12)                  1.5036         0.411692   
     20. B(C  18,C  16)                  1.3304         0.777655   
     21. B(C  19,C  17)                  1.3279         0.784912   
     22. B(H  20,C   5)                  1.0841         0.367965   
     23. B(H  21,C   7)                  1.0844         0.367531   
     24. B(H  22,C   9)                  1.0827         0.369907   
     25. B(H  23,C  11)                  1.0957         0.352591   
     26. B(H  24,C  11)                  1.0936         0.355358   
     27. B(H  25,C  12)                  1.0948         0.353808   
     28. B(H  26,C  12)                  1.0951         0.353427   
     29. B(H  27,C  13)                  1.0843         0.367663   
     30. B(H  28,C  14)                  1.0826         0.369959   
     31. B(H  29,C  15)                  1.0825         0.370183   
     32. B(H  30,C  16)                  1.0871         0.363949   
     33. B(H  31,C  17)                  1.0875         0.363468   
     34. B(H  32,O   0)                  0.9690         0.502991   
     35. B(H  33,O   1)                  0.9694         0.502304   
     36. B(H  34,C  18)                  1.0827         0.369938   
     37. B(H  35,C  18)                  1.0856         0.365947   
     38. B(H  36,C  19)                  1.0830         0.369416   
     39. B(H  37,C  19)                  1.0850         0.366794   
     40. B(H  39,O   1)                  2.8214         0.000557   
     41. B(C  41,O  40)                  1.4346         0.475016   
     42. B(C  41,H  39)                  1.0895         0.360759   
     43. B(C  42,C  41)                  1.5251         0.380291   
     44. B(C  42,H  38)                  1.0873         0.363627   
     45. B(C  43,O  40)                  1.3454         0.659207   
     46. B(O  44,H  32)                  2.1292         0.007090   
     47. B(O  44,C  43)                  1.1873         1.178480   
     48. B(O  45,C  43)                  1.3695         0.603280   
     49. B(O  45,C  42)                  1.4008         0.537835   
     50. B(F  46,C  42)                  1.3782         0.542988   
     51. B(H  47,C  41)                  1.0877         0.363174   
     52. A(C   8,O   0,H  32)          112.9908         0.368793   
     53. A(C  10,O   1,H  33)          109.7704         0.364760   
     54. A(C   7,C   2,C   8)          118.1904         0.428105   
     55. A(C   3,C   2,C   8)          121.9734         0.404059   
     56. A(C   3,C   2,C   7)          119.8359         0.406573   
     57. A(C   2,C   3,C   5)          120.8206         0.406654   
     58. A(C   2,C   3,C   9)          121.4655         0.406518   
     59. A(C   5,C   3,C   9)          117.6917         0.430839   
     60. A(C  10,C   4,C  11)          121.2102         0.397996   
     61. A(C   5,C   4,C  11)          120.8326         0.400190   
     62. A(C   5,C   4,C  10)          117.9343         0.430996   
     63. A(C   4,C   5,H  20)          118.5549         0.353956   
     64. A(C   3,C   5,H  20)          118.7048         0.353016   
     65. A(C   3,C   5,C   4)          122.7207         0.432203   
     66. A(C   7,C   6,C  12)          120.9042         0.399833   
     67. A(C   7,C   6,C  13)          117.6360         0.433379   
     68. A(C  12,C   6,C  13)          121.4542         0.399263   
     69. A(C   2,C   7,H  21)          118.0975         0.352878   
     70. A(C   6,C   7,H  21)          119.0954         0.354111   
     71. A(C   2,C   7,C   6)          122.7940         0.432408   
     72. A(O   0,C   8,C   2)          124.0687         0.427857   
     73. A(C   2,C   8,C  15)          119.5773         0.429194   
     74. A(O   0,C   8,C  15)          116.3528         0.431657   
     75. A(C   3,C   9,C  14)          120.8631         0.433799   
     76. A(C  14,C   9,H  22)          119.3736         0.355620   
     77. A(C   3,C   9,H  22)          119.7553         0.353218   
     78. A(O   1,C  10,C   4)          122.2268         0.424643   
     79. A(C   4,C  10,C  14)          120.4627         0.431844   
     80. A(O   1,C  10,C  14)          117.2599         0.427865   
     81. A(C   4,C  11,C  16)          113.7935         0.372126   
     82. A(C   4,C  11,H  24)          108.0483         0.326508   
     83. A(C  16,C  11,H  23)          109.1688         0.327744   
     84. A(C  16,C  11,H  24)          108.7977         0.328167   
     85. A(C   4,C  11,H  23)          110.3089         0.326089   
     86. A(H  23,C  11,H  24)          106.4482         0.289277   
     87. A(C   6,C  12,C  17)          113.5897         0.372344   
     88. A(H  25,C  12,H  26)          106.4743         0.289186   
     89. A(C   6,C  12,H  26)          108.2427         0.325742   
     90. A(C  17,C  12,H  25)          109.1013         0.328593   
     91. A(C   6,C  12,H  25)          110.2470         0.325799   
     92. A(C  17,C  12,H  26)          108.9306         0.328535   
     93. A(C   6,C  13,C  15)          121.0728         0.435129   
     94. A(C  15,C  13,H  27)          119.2214         0.355480   
     95. A(C   6,C  13,H  27)          119.7052         0.353646   
     96. A(C  10,C  14,H  28)          118.8509         0.354938   
     97. A(C   9,C  14,H  28)          120.8356         0.355629   
     98. A(C   9,C  14,C  10)          120.3127         0.436033   
     99. A(C  13,C  15,H  29)          121.0867         0.355892   
    100. A(C   8,C  15,H  29)          118.1964         0.354157   
    101. A(C   8,C  15,C  13)          120.7111         0.435260   
    102. A(C  11,C  16,C  18)          125.1460         0.419158   
    103. A(C  18,C  16,H  30)          119.1974         0.367464   
    104. A(C  11,C  16,H  30)          115.6553         0.329463   
    105. A(C  12,C  17,C  19)          125.2204         0.420771   
    106. A(C  19,C  17,H  31)          119.2309         0.367967   
    107. A(C  12,C  17,H  31)          115.5479         0.330058   
    108. A(H  34,C  18,H  35)          116.7440         0.292816   
    109. A(C  16,C  18,H  35)          121.6266         0.367810   
    110. A(C  16,C  18,H  34)          121.6137         0.368495   
    111. A(H  36,C  19,H  37)          116.7790         0.292858   
    112. A(C  17,C  19,H  37)          121.5659         0.368543   
    113. A(C  17,C  19,H  36)          121.6542         0.368994   
    114. A(O   0,H  32,O  44)          146.8023         0.176416   
    115. A(C  41,O  40,C  43)          109.7719         0.413018   
    116. A(H  39,C  41,O  40)          109.1798         0.335526   
    117. A(O  40,C  41,H  47)          109.2387         0.335898   
    118. A(H  39,C  41,H  47)          111.1651         0.291312   
    119. A(C  42,C  41,H  47)          111.7988         0.325725   
    120. A(O  40,C  41,C  42)          103.3214         0.377459   
    121. A(H  39,C  41,C  42)          111.8062         0.325368   
    122. A(O  45,C  42,F  46)          108.9669         0.406162   
    123. A(C  41,C  42,F  46)          110.8500         0.384664   
    124. A(H  38,C  42,F  46)          107.7239         0.342136   
    125. A(C  41,C  42,O  45)          103.9169         0.385683   
    126. A(H  38,C  42,O  45)          109.4601         0.343009   
    127. A(H  38,C  42,C  41)          115.7455         0.325792   
    128. A(O  44,C  43,O  45)          124.2463         0.479095   
    129. A(O  40,C  43,O  45)          110.1158         0.431031   
    130. A(O  40,C  43,O  44)          125.6351         0.487002   
    131. A(H  32,O  44,C  43)          143.0443         0.211977   
    132. A(C  42,O  45,C  43)          110.2725         0.415636   
    133. D(C   5,C   3,C   2,C   8)    124.7050         0.013134   
    134. D(C   5,C   3,C   2,C   7)    -55.5225         0.013134   
    135. D(C   9,C   3,C   2,C   8)    -57.0528         0.013134   
    136. D(C   9,C   3,C   2,C   7)    122.7196         0.013134   
    137. D(H  20,C   5,C   4,C  11)     -0.9084         0.026368   
    138. D(H  20,C   5,C   3,C   2)     -2.3094         0.025507   
    139. D(H  20,C   5,C   4,C  10)   -179.1925         0.026368   
    140. D(C   3,C   5,C   4,C  10)     -0.8244         0.026368   
    141. D(H  20,C   5,C   3,C   9)    179.3839         0.025507   
    142. D(C   3,C   5,C   4,C  11)    177.4597         0.026368   
    143. D(C   4,C   5,C   3,C   2)    179.3248         0.025507   
    144. D(C   4,C   5,C   3,C   9)      1.0181         0.025507   
    145. D(C   6,C   7,C   2,C   8)      1.4038         0.025446   
    146. D(H  21,C   7,C   2,C   3)      0.2937         0.025446   
    147. D(H  21,C   7,C   6,C  13)   -179.0214         0.026580   
    148. D(C   6,C   7,C   2,C   3)   -178.3772         0.025446   
    149. D(H  21,C   7,C   6,C  12)      0.1245         0.026580   
    150. D(C   2,C   7,C   6,C  12)    178.7827         0.026580   
    151. D(H  21,C   7,C   2,C   8)   -179.9253         0.025446   
    152. D(C   2,C   7,C   6,C  13)     -0.3632         0.026580   
    153. D(C  15,C   8,C   2,C   7)     -1.5187         0.023633   
    154. D(O   0,C   8,C   2,C   7)    178.0588         0.023633   
    155. D(C  15,C   8,C   2,C   3)    178.2573         0.023633   
    156. D(C  15,C   8,O   0,H  32)    166.4568         0.028959   
    157. D(O   0,C   8,C   2,C   3)     -2.1652         0.023633   
    158. D(C   2,C   8,O   0,H  32)    -13.1331         0.028959   
    159. D(H  22,C   9,C   3,C   5)    178.8462         0.025405   
    160. D(C  14,C   9,C   3,C   5)     -0.1216         0.025405   
    161. D(H  22,C   9,C   3,C   2)      0.5510         0.025405   
    162. D(C  14,C   9,C   3,C   2)   -178.4167         0.025405   
    163. D(C   4,C  10,O   1,H  33)     27.4431         0.027933   
    164. D(C  14,C  10,C   4,C  11)   -178.5471         0.024683   
    165. D(C  14,C  10,C   4,C   5)     -0.2698         0.024683   
    166. D(O   1,C  10,C   4,C  11)     -1.2051         0.024683   
    167. D(O   1,C  10,C   4,C   5)    177.0721         0.024683   
    168. D(C  14,C  10,O   1,H  33)   -155.1342         0.027933   
    169. D(H  24,C  11,C   4,C   5)      0.5140         0.011558   
    170. D(H  23,C  11,C   4,C  10)     62.7565         0.011558   
    171. D(H  23,C  11,C   4,C   5)   -115.4709         0.011558   
    172. D(C  16,C  11,C   4,C  10)    -60.3241         0.011558   
    173. D(C  16,C  11,C   4,C   5)    121.4485         0.011558   
    174. D(H  26,C  12,C   6,C   7)   -178.7414         0.011366   
    175. D(H  25,C  12,C   6,C  13)    116.4652         0.011366   
    176. D(H  25,C  12,C   6,C   7)    -62.6478         0.011366   
    177. D(C  17,C  12,C   6,C  13)   -120.7375         0.011366   
    178. D(C  17,C  12,C   6,C   7)     60.1495         0.011366   
    179. D(H  27,C  13,C   6,C  12)      0.5703         0.026127   
    180. D(H  27,C  13,C   6,C   7)    179.7112         0.026127   
    181. D(C  15,C  13,C   6,C  12)   -179.7109         0.026127   
    182. D(C  15,C  13,C   6,C   7)     -0.5700         0.026127   
    183. D(H  28,C  14,C  10,C   4)   -178.5373         0.026988   
    184. D(H  28,C  14,C  10,O   1)      3.9921         0.026988   
    185. D(C   9,C  14,C  10,C   4)      1.1367         0.026988   
    186. D(C   9,C  14,C  10,O   1)   -176.3338         0.026988   
    187. D(H  28,C  14,C   9,H  22)     -0.2404         0.027654   
    188. D(H  28,C  14,C   9,C   3)    178.7312         0.027654   
    189. D(C  10,C  14,C   9,H  22)   -179.9079         0.027654   
    190. D(C  10,C  14,C   9,C   3)     -0.9362         0.027654   
    191. D(C   8,C  15,C  13,C   6)      0.4251         0.027876   
    192. D(H  29,C  15,C   8,C   2)    179.7790         0.026220   
    193. D(H  29,C  15,C   8,O   0)      0.1696         0.026220   
    194. D(C  13,C  15,C   8,C   2)      0.6485         0.026220   
    195. D(C  13,C  15,C   8,O   0)   -178.9610         0.026220   
    196. D(H  29,C  15,C  13,H  27)      1.0400         0.027876   
    197. D(H  29,C  15,C  13,C   6)   -178.6801         0.027876   
    198. D(C   8,C  15,C  13,H  27)   -179.8548         0.027876   
    199. D(H  30,C  16,C  11,H  23)   -178.2169         0.012257   
    200. D(H  30,C  16,C  11,C   4)    -54.5157         0.012257   
    201. D(C  18,C  16,C  11,H  24)   -114.4108         0.012257   
    202. D(C  18,C  16,C  11,H  23)      1.3736         0.012257   
    203. D(C  18,C  16,C  11,C   4)    125.0748         0.012257   
    204. D(H  31,C  17,C  12,H  25)   -179.6597         0.012549   
    205. D(H  31,C  17,C  12,C   6)     56.9149         0.012549   
    206. D(C  19,C  17,C  12,H  26)    116.5184         0.012549   
    207. D(C  19,C  17,C  12,H  25)      0.6667         0.012549   
    208. D(C  19,C  17,C  12,C   6)   -122.7587         0.012549   
    209. D(H  35,C  18,C  16,H  30)   -179.2861         0.043440   
    210. D(H  35,C  18,C  16,C  11)      1.1368         0.043440   
    211. D(H  34,C  18,C  16,H  30)     -0.7735         0.043440   
    212. D(H  34,C  18,C  16,C  11)    179.6493         0.043440   
    213. D(H  37,C  19,C  17,H  31)   -179.6951         0.044340   
    214. D(H  37,C  19,C  17,C  12)     -0.0325         0.044340   
    215. D(H  36,C  19,C  17,H  31)      0.6629         0.044340   
    216. D(H  36,C  19,C  17,C  12)   -179.6746         0.044340   
    217. D(O  44,H  32,O   0,C   8)   -173.3426         0.279675   
    218. D(H  47,C  41,O  40,C  43)   -132.1818         0.017793   
    219. D(C  42,C  41,O  40,C  43)    -13.0497         0.017793   
    220. D(H  39,C  41,O  40,C  43)    106.0636         0.017793   
    221. D(O  45,C  42,C  41,H  47)    133.1951         0.011525   
    222. D(O  45,C  42,C  41,O  40)     15.8471         0.011525   
    223. D(O  45,C  42,C  41,H  39)   -101.4351         0.011525   
    224. D(H  38,C  42,C  41,H  47)   -106.7687         0.011525   
    225. D(H  38,C  42,C  41,O  40)    135.8833         0.011525   
    226. D(H  38,C  42,C  41,H  39)     18.6010         0.011525   
    227. D(O  45,C  43,O  40,C  41)      5.1521         0.032191   
    228. D(O  44,C  43,O  40,C  41)   -174.2632         0.032191   
    229. D(H  32,O  44,C  43,O  45)    -85.0961         0.120108   
    230. D(H  32,O  44,C  43,O  40)     94.2397         0.120108   
    231. D(C  43,O  44,H  32,O   0)   -159.9113         0.001523   
    232. D(C  42,O  45,C  43,O  44)   -174.5069         0.026600   
    233. D(C  42,O  45,C  43,O  40)      6.0680         0.026600   
    234. D(C  43,O  45,C  42,F  46)    104.5010         0.023003   
    235. D(C  43,O  45,C  42,C  41)    -13.7215         0.023003   
    236. D(C  43,O  45,C  42,H  38)   -137.9280         0.023003   
    -----------------------------------------------------------------

Number of atoms                         .... 48
Number of degrees of freedom            .... 236


         *************************************************************
         *                GEOMETRY OPTIMIZATION CYCLE   1            *
         *************************************************************
---------------------------------
CARTESIAN COORDINATES (ANGSTROEM)
---------------------------------
  O      1.588749    1.838516    2.181586
  O     -3.670125   -1.703272    2.216695
  C      1.329627    0.218923    0.370780
  C      0.014848   -0.283101    0.848563
  C     -2.354000   -0.731767    0.417080
  C     -1.106611   -0.259060    0.015058
  C      3.135655    0.092494   -1.279159
  C      1.893733   -0.308465   -0.794331
  C      2.041381    1.217869    1.060827
  C     -0.137647   -0.827116    2.127318
  C     -2.468939   -1.266036    1.707888
  C     -3.554959   -0.632859   -0.501563
  C      3.719955   -0.528780   -2.534508
  C      3.826136    1.068058   -0.560923
  C     -1.363158   -1.321776    2.548666
  C      3.287565    1.625935    0.587981
  C     -4.190577   -1.962332   -0.816513
  C      2.866245   -0.332355   -3.756500
  C     -5.472592   -2.262616   -0.625992
  C      2.384784   -1.307013   -4.519092
  H     -1.009372    0.168405   -0.976472
  H      1.343435   -1.077242   -1.325521
  H      0.713842   -0.879628    2.793963
  H     -4.310010    0.033694   -0.070004
  H     -3.229214   -0.167765   -1.436206
  H      3.888807   -1.599935   -2.383841
  H      4.703493   -0.081380   -2.712583
  H      4.798496    1.401781   -0.905805
  H     -1.475857   -1.761507    3.531550
  H      3.813903    2.398366    1.133954
  H     -3.523833   -2.717994   -1.224220
  H      2.637531    0.700682   -4.007711
  H      0.648125    1.677403    2.349779
  H     -4.248117   -1.989397    1.492955
  H     -5.870801   -3.237195   -0.878548
  H     -6.175266   -1.534896   -0.231994
  H      1.778232   -1.098868   -5.391881
  H      2.585181   -2.350721   -4.300662
  H     -5.041635    0.924628    3.171568
  H     -3.809174   -0.451012    4.741176
  O     -2.389904    1.033492    4.973619
  C     -3.761866    0.614284    4.964607
  C     -4.378773    1.454593    3.851329
  C     -2.124372    1.745839    3.863586
  O     -1.055207    2.146481    3.538045
  O     -3.272147    1.938261    3.141627
  F     -5.078084    2.521799    4.372364
  H     -4.209827    0.833064    5.931317

----------------------------
CARTESIAN COORDINATES (A.U.)
----------------------------
  NO LB      ZA    FRAG     MASS         X           Y           Z
   0 O     8.0000    0    15.999    3.002300    3.474291    4.122600
   1 O     8.0000    0    15.999   -6.935532   -3.218717    4.188946
   2 C     6.0000    0    12.011    2.512631    0.413705    0.700672
   3 C     6.0000    0    12.011    0.028059   -0.534984    1.603552
   4 C     6.0000    0    12.011   -4.448416   -1.382840    0.788167
   5 C     6.0000    0    12.011   -2.091191   -0.489552    0.028455
   6 C     6.0000    0    12.011    5.925530    0.174787   -2.417260
   7 C     6.0000    0    12.011    3.578636   -0.582914   -1.501067
   8 C     6.0000    0    12.011    3.857650    2.301438    2.004672
   9 C     6.0000    0    12.011   -0.260116   -1.563023    4.020048
  10 C     6.0000    0    12.011   -4.665618   -2.392462    3.227441
  11 C     6.0000    0    12.011   -6.717899   -1.195929   -0.947816
  12 C     6.0000    0    12.011    7.029696   -0.999250   -4.789525
  13 C     6.0000    0    12.011    7.230350    2.018337   -1.059990
  14 C     6.0000    0    12.011   -2.575995   -2.497795    4.816280
  15 C     6.0000    0    12.011    6.212597    3.072573    1.111122
  16 C     6.0000    0    12.011   -7.919043   -3.708270   -1.542986
  17 C     6.0000    0    12.011    5.416417   -0.628061   -7.098757
  18 C     6.0000    0    12.011  -10.341700   -4.275724   -1.182954
  19 C     6.0000    0    12.011    4.506589   -2.469897   -8.539846
  20 H     1.0000    0     1.008   -1.907436    0.318240   -1.845265
  21 H     1.0000    0     1.008    2.538723   -2.035693   -2.504872
  22 H     1.0000    0     1.008    1.348965   -1.662255    5.279826
  23 H     1.0000    0     1.008   -8.144739    0.063673   -0.132289
  24 H     1.0000    0     1.008   -6.102330   -0.317030   -2.714035
  25 H     1.0000    0     1.008    7.348780   -3.023439   -4.504807
  26 H     1.0000    0     1.008    8.888313   -0.153786   -5.126038
  27 H     1.0000    0     1.008    9.067843    2.648983   -1.711724
  28 H     1.0000    0     1.008   -2.788965   -3.328766    6.673662
  29 H     1.0000    0     1.008    7.207233    4.532256    2.142863
  30 H     1.0000    0     1.008   -6.659078   -5.136264   -2.313441
  31 H     1.0000    0     1.008    4.984212    1.324096   -7.573476
  32 H     1.0000    0     1.008    1.224780    3.169833    4.440438
  33 H     1.0000    0     1.008   -8.027777   -3.759415    2.821277
  34 H     1.0000    0     1.008  -11.094206   -6.117411   -1.660215
  35 H     1.0000    0     1.008  -11.669562   -2.900534   -0.438406
  36 H     1.0000    0     1.008    3.360371   -2.076560  -10.189179
  37 H     1.0000    0     1.008    4.885284   -4.442218   -8.127073
  38 H     1.0000    0     1.008   -9.527310    1.747294    5.993395
  39 H     1.0000    0     1.008   -7.198297   -0.852289    8.959525
  40 O     8.0000    0    15.999   -4.516264    1.953017    9.398778
  41 C     6.0000    0    12.011   -7.108897    1.160829    9.381747
  42 C     6.0000    0    12.011   -8.274682    2.748782    7.277957
  43 C     6.0000    0    12.011   -4.014481    3.299157    7.301120
  44 O     8.0000    0    15.999   -1.994053    4.056261    6.685937
  45 O     8.0000    0    15.999   -6.183462    3.662782    5.936815
  46 F     9.0000    0    18.998   -9.596187    4.765509    8.262570
  47 H     1.0000    0     1.008   -7.955420    1.574262   11.208565

--------------------------------
INTERNAL COORDINATES (ANGSTROEM)
--------------------------------
 O      0   0   0     0.000000000000     0.00000000     0.00000000
 O      1   0   0     6.340445474055     0.00000000     0.00000000
 C      1   2   0     2.443203548369    62.98920842     0.00000000
 C      3   1   2     1.486253393910    94.55836663     0.25479862
 C      2   1   3     2.431998853122    47.46063582   324.33096184
 C      5   2   1     1.393217554333   146.46891719    24.57346772
 C      3   1   2     2.449493505739   117.08110514   180.67020926
 C      7   3   1     1.392191577725    28.66576496   181.89461876
 C      1   2   3     1.358741776787    91.47316990   358.99913995
 C      4   3   1     1.398005899194   121.46546205   301.94674902
 C      2   1   3     1.375829734934    25.35072773   358.15150467
 C      5   2   1     1.515252251966    92.62357455   208.22768998
 C      7   3   1     1.517658563636   149.55941600   179.83269829
 C      7   3   1     1.394400707864    88.97068323     1.57276607
 C     10   4   3     1.387118997224   120.86311874   181.58326109
 C     14   7   3     1.386097287061   121.07275632   359.25576859
 C     12   5   2     1.506885266120   113.79346159   299.09862939
 C     13   7   3     1.503552439412   113.58966377    61.30204559
 C     17  12   5     1.330424977827   125.14604998   125.07479467
 C     18  13   7     1.327896239937   125.22035274   237.24131277
 H      6   5   2     1.084118647545   118.55488376   183.34382338
 H      8   7   3     1.084440185871   119.09544956   181.34180508
 H     10   4   3     1.082685417083   119.75529384     0.55104299
 H     12   5   2     1.095736165051   110.30890608    62.17922056
 H     12   5   2     1.093608377445   108.04830010   178.16417004
 H     13   7   3     1.094798633780   110.24697539   298.50477539
 H     13   7   3     1.095091322231   108.24269426   182.41122407
 H     14   7   3     1.084342242727   119.70523609   179.53696417
 H     15  10   4     1.082647665368   120.83559088   178.73124195
 H     16  14   7     1.082483054698   121.08668061   181.31986842
 H     17  12   5     1.087105807367   115.65532864   305.48427655
 H     18  13   7     1.087465843042   115.54792163    56.91490866
 H      1   2   3     0.969029722420    25.98107959   146.04580187
 H      2   1   3     0.969402034541   130.94001806   319.87959145
 H     19  17  12     1.082662789419   121.61369059   179.64934501
 H     19  17  12     1.085615427183   121.62664490     1.13677576
 H     20  18  13     1.083047375578   121.65423879   180.32538927
 H     20  18  13     1.084986311680   121.56588286   359.96747342
 H      2   1   3     3.114270321147    84.00777154   218.59680194
 H     39   2   1     2.423843214486    59.71607882   280.31387067
 O     40  39   2     2.066908233545    90.82227617   113.57756900
 C     40  39   2     1.089502056700    66.41834240   147.44764161
 C     39   2   1     1.087346962278   109.54112336   322.09324444
 C     41  40  39     1.345406233151   115.02486331   324.81477614
 O     44  41  40     1.187267433612   125.63513946   217.60614569
 O     44  41  40     1.369539626460   110.11575996    37.02146271
 F     43  39   2     1.378201585860   107.72390449   187.00886145
 H     42  40  39     1.087686305014   111.16508943   117.63426678

---------------------------
INTERNAL COORDINATES (A.U.)
---------------------------
 O      0   0   0     0.000000000000     0.00000000     0.00000000
 O      1   0   0    11.981705513025     0.00000000     0.00000000
 C      1   2   0     4.616985595842    62.98920842     0.00000000
 C      3   1   2     2.808611880101    94.55836663     0.25479862
 C      2   1   3     4.595811790411    47.46063582   324.33096184
 C      5   2   1     2.632799622662   146.46891719    24.57346772
 C      3   1   2     4.628871892664   117.08110514   180.67020926
 C      7   3   1     2.630860807852    28.66576496   181.89461876
 C      1   2   3     2.567649844844    91.47316990   358.99913995
 C      4   3   1     2.641848283082   121.46546205   301.94674902
 C      2   1   3     2.599941405931    25.35072773   358.15150467
 C      5   2   1     2.863411780024    92.62357455   208.22768998
 C      7   3   1     2.867959050072   149.55941600   179.83269829
 C      7   3   1     2.635035458810    88.97068323     1.57276607
 C     10   4   3     2.621275019912   120.86311874   181.58326109
 C     14   7   3     2.619344267517   121.07275632   359.25576859
 C     12   5   2     2.847600468208   113.79346159   299.09862939
 C     13   7   3     2.841302338478   113.58966377    61.30204559
 C     17  12   5     2.514138849821   125.14604998   125.07479467
 C     18  13   7     2.509360227745   125.22035274   237.24131277
 H      6   5   2     2.048687340536   118.55488376   183.34382338
 H      8   7   3     2.049294959915   119.09544956   181.34180508
 H     10   4   3     2.045978927476   119.75529384     0.55104299
 H     12   5   2     2.070641266980   110.30890608    62.17922056
 H     12   5   2     2.066620331133   108.04830010   178.16417004
 H     13   7   3     2.068869589636   110.24697539   298.50477539
 H     13   7   3     2.069422690650   108.24269426   182.41122407
 H     14   7   3     2.049109874196   119.70523609   179.53696417
 H     15  10   4     2.045907587075   120.83559088   178.73124195
 H     16  14   7     2.045596517990   121.08668061   181.31986842
 H     17  12   5     2.054332254520   115.65532864   305.48427655
 H     18  13   7     2.055012623343   115.54792163    56.91490866
 H      1   2   3     1.831200791004    25.98107959   146.04580187
 H      2   1   3     1.831904358949   130.94001806   319.87959145
 H     19  17  12     2.045936167388   121.61369059   179.64934501
 H     19  17  12     2.051515844135   121.62664490     1.13677576
 H     20  18  13     2.046662929904   121.65423879   180.32538927
 H     20  18  13     2.050326988128   121.56588286   359.96747342
 H      2   1   3     5.885118013968    84.00777154   218.59680194
 H     39   2   1     4.580399866942    59.71607882   280.31387067
 O     40  39   2     3.905890505347    90.82227617   113.57756900
 C     40  39   2     2.058860509507    66.41834240   147.44764161
 C     39   2   1     2.054787971256   109.54112336   322.09324444
 C     41  40  39     2.542449319526   115.02486331   324.81477614
 O     44  41  40     2.243610297250   125.63513946   217.60614569
 O     44  41  40     2.588054823562   110.11575996    37.02146271
 F     43  39   2     2.604423554611   107.72390449   187.00886145
 H     42  40  39     2.055429236093   111.16508943   117.63426678

---------------------
BASIS SET INFORMATION
---------------------
There are 4 groups of distinct atoms

 Group   1 Type O   : 11s6p2d1f contracted to 5s3p2d1f pattern {62111/411/11/1}
 Group   2 Type C   : 11s6p2d1f contracted to 5s3p2d1f pattern {62111/411/11/1}
 Group   3 Type H   : 5s1p contracted to 3s1p pattern {311/1}
 Group   4 Type F   : 11s6p2d1f contracted to 5s3p2d1f pattern {62111/411/11/1}

Atom   0O    basis set group =>   1
Atom   1O    basis set group =>   1
Atom   2C    basis set group =>   2
Atom   3C    basis set group =>   2
Atom   4C    basis set group =>   2
Atom   5C    basis set group =>   2
Atom   6C    basis set group =>   2
Atom   7C    basis set group =>   2
Atom   8C    basis set group =>   2
Atom   9C    basis set group =>   2
Atom  10C    basis set group =>   2
Atom  11C    basis set group =>   2
Atom  12C    basis set group =>   2
Atom  13C    basis set group =>   2
Atom  14C    basis set group =>   2
Atom  15C    basis set group =>   2
Atom  16C    basis set group =>   2
Atom  17C    basis set group =>   2
Atom  18C    basis set group =>   2
Atom  19C    basis set group =>   2
Atom  20H    basis set group =>   3
Atom  21H    basis set group =>   3
Atom  22H    basis set group =>   3
Atom  23H    basis set group =>   3
Atom  24H    basis set group =>   3
Atom  25H    basis set group =>   3
Atom  26H    basis set group =>   3
Atom  27H    basis set group =>   3
Atom  28H    basis set group =>   3
Atom  29H    basis set group =>   3
Atom  30H    basis set group =>   3
Atom  31H    basis set group =>   3
Atom  32H    basis set group =>   3
Atom  33H    basis set group =>   3
Atom  34H    basis set group =>   3
Atom  35H    basis set group =>   3
Atom  36H    basis set group =>   3
Atom  37H    basis set group =>   3
Atom  38H    basis set group =>   3
Atom  39H    basis set group =>   3
Atom  40O    basis set group =>   1
Atom  41C    basis set group =>   2
Atom  42C    basis set group =>   2
Atom  43C    basis set group =>   2
Atom  44O    basis set group =>   1
Atom  45O    basis set group =>   1
Atom  46F    basis set group =>   4
Atom  47H    basis set group =>   3
---------------------------------
AUXILIARY/J BASIS SET INFORMATION
---------------------------------
There are 4 groups of distinct atoms

 Group   1 Type O   : 12s5p4d2f1g contracted to 6s4p3d1f1g pattern {711111/2111/211/2/1}
 Group   2 Type C   : 12s5p4d2f1g contracted to 6s4p3d1f1g pattern {711111/2111/211/2/1}
 Group   3 Type H   : 5s2p1d contracted to 3s1p1d pattern {311/2/1}
 Group   4 Type F   : 12s5p4d2f1g contracted to 6s4p3d1f1g pattern {711111/2111/211/2/1}

Atom   0O    basis set group =>   1
Atom   1O    basis set group =>   1
Atom   2C    basis set group =>   2
Atom   3C    basis set group =>   2
Atom   4C    basis set group =>   2
Atom   5C    basis set group =>   2
Atom   6C    basis set group =>   2
Atom   7C    basis set group =>   2
Atom   8C    basis set group =>   2
Atom   9C    basis set group =>   2
Atom  10C    basis set group =>   2
Atom  11C    basis set group =>   2
Atom  12C    basis set group =>   2
Atom  13C    basis set group =>   2
Atom  14C    basis set group =>   2
Atom  15C    basis set group =>   2
Atom  16C    basis set group =>   2
Atom  17C    basis set group =>   2
Atom  18C    basis set group =>   2
Atom  19C    basis set group =>   2
Atom  20H    basis set group =>   3
Atom  21H    basis set group =>   3
Atom  22H    basis set group =>   3
Atom  23H    basis set group =>   3
Atom  24H    basis set group =>   3
Atom  25H    basis set group =>   3
Atom  26H    basis set group =>   3
Atom  27H    basis set group =>   3
Atom  28H    basis set group =>   3
Atom  29H    basis set group =>   3
Atom  30H    basis set group =>   3
Atom  31H    basis set group =>   3
Atom  32H    basis set group =>   3
Atom  33H    basis set group =>   3
Atom  34H    basis set group =>   3
Atom  35H    basis set group =>   3
Atom  36H    basis set group =>   3
Atom  37H    basis set group =>   3
Atom  38H    basis set group =>   3
Atom  39H    basis set group =>   3
Atom  40O    basis set group =>   1
Atom  41C    basis set group =>   2
Atom  42C    basis set group =>   2
Atom  43C    basis set group =>   2
Atom  44O    basis set group =>   1
Atom  45O    basis set group =>   1
Atom  46F    basis set group =>   4
Atom  47H    basis set group =>   3
--------------------------------------------------------------------------
WARNING: There was an error initializing an OpenFabrics device.

  Local host:   ga01
  Local device: mlx5_0
--------------------------------------------------------------------------


           ************************************************************
           *        Program running with 25 parallel MPI-processes    *
           *              working on a common directory               *
           ************************************************************
------------------------------------------------------------------------------
                             ORCA STARTUP CALCULATIONS
                           -- RI-GTO INTEGRALS CHOSEN --
------------------------------------------------------------------------------
------------------------------------------------------------------------------
                   ___                                                        
                  /   \      - P O W E R E D   B Y -                         
                 /     \                                                     
                 |  |  |   _    _      __       _____    __    __             
                 |  |  |  | |  | |    /  \     |  _  \  |  |  /  |          
                  \  \/   | |  | |   /    \    | | | |  |  | /  /          
                 / \  \   | |__| |  /  /\  \   | |_| |  |  |/  /          
                |  |  |   |  __  | /  /__\  \  |    /   |      \           
                |  |  |   | |  | | |   __   |  |    \   |  |\   \          
                \     /   | |  | | |  |  |  |  | |\  \  |  | \   \       
                 \___/    |_|  |_| |__|  |__|  |_| \__\ |__|  \__/        
                                                                              
                      - O R C A' S   B I G   F R I E N D -                    
                                      &                                       
                       - I N T E G R A L  F E E D E R -                       
                                                                              
 v1 FN, 2020, v2 2021, v3 2022-2024                                           
------------------------------------------------------------------------------


----------------------
SHARK INTEGRAL PACKAGE
----------------------

Number of atoms                             ...     48
Number of basis functions                   ...    963
Number of shells                            ...    381
Maximum angular momentum                    ...      3
Integral batch strategy                     ... SHARK/LIBINT Hybrid
RI-J (if used) integral strategy            ... SPLIT-RIJ (Revised 2003 algorithm where possible)
Printlevel                                  ...      1
Contraction scheme used                     ... SEGMENTED contraction
Prescreening option                         ... SCHWARTZ
   Thresh                                   ... 2.500e-11
   Tcut                                     ... 2.500e-12
   Tpresel                                  ... 2.500e-12 
Coulomb Range Separation                    ... NOT USED
Exchange Range Separation                   ... NOT USED
Multipole approximations                    ... NOT USED
Finite Nucleus Model                        ... NOT USED
CABS basis                                  ... NOT available
Auxiliary Coulomb fitting basis             ... AVAILABLE
   # of basis functions in Aux-J            ...   1554
   # of shells in Aux-J                     ...    510
   Maximum angular momentum in Aux-J        ...      4
Auxiliary J/K fitting basis                 ... NOT available
Auxiliary Correlation fitting basis         ... NOT available
Auxiliary 'external' fitting basis          ... NOT available

Checking pre-screening integrals            ... done (  0.0 sec) Dimension = 381
Check shell pair data                       ... done (  0.0 sec)
Shell pair information
Shell pair cut-off parameter TPreSel        ...   2.5e-12
Total number of shell pairs                 ...     72771
Shell pairs after pre-screening             ...     44796
Total number of primitive shell pairs       ...    222768
Primitive shell pairs kept                  ...     88872
          la=0 lb=0:  11751 shell pairs
          la=1 lb=0:  13129 shell pairs
          la=1 lb=1:   3699 shell pairs
          la=2 lb=0:   6230 shell pairs
          la=2 lb=1:   3570 shell pairs
          la=2 lb=2:    869 shell pairs
          la=3 lb=0:   2889 shell pairs
          la=3 lb=1:   1695 shell pairs
          la=3 lb=2:    769 shell pairs
          la=3 lb=3:    195 shell pairs

Calculating one electron integrals          ... done (  0.1 sec)
Calculating RI/J V-Matrix + Cholesky decomp.... done (  0.1 sec)
Calculating Nuclear repulsion               ... done (  0.0 sec) ENN=   2427.835782262938 Eh

Diagonalization of the overlap matrix:
Smallest eigenvalue                        ... 5.457e-06
Time for diagonalization                   ...    0.143 sec
Threshold for overlap eigenvalues          ... 1.000e-07
Number of eigenvalues below threshold      ... 0
Time for construction of square roots      ...    0.078 sec
Total time needed                          ...    0.229 sec

-------------------
DFT GRID GENERATION
-------------------

General Integration Accuracy     IntAcc      ... 4.388
Radial Grid Type                 RadialGrid  ... OptM3 with GC (2021)
Angular Grid (max. ang.)         AngularGrid ... 4 (Lebedev-302)
Angular grid pruning method      GridPruning ... 4 (adaptive)
Weight generation scheme         WeightScheme... mBecke (2022)
Basis function cutoff            BFCut       ... 1.0000e-11
Integration weight cutoff        WCut        ... 1.0000e-14
Partially contracted basis set               ... off
Rotationally invariant grid construction     ... off
Angular grids for H and He will be reduced by one unit

Total number of grid points                  ...   228415
Total number of batches                      ...     3595
Average number of points per batch           ...       63
Average number of grid points per atom       ...     4759

--------------------
COSX GRID GENERATION
--------------------

GRIDX 1
-------
General Integration Accuracy     IntAcc      ... 3.816
Radial Grid Type                 RadialGrid  ... OptM3 with GC (2021)
Angular Grid (max. ang.)         AngularGrid ... 1 (Lebedev-50)
Angular grid pruning method      GridPruning ... 4 (adaptive)
Weight generation scheme         WeightScheme... mBecke (2022)
Basis function cutoff            BFCut       ... 1.0000e-11
Integration weight cutoff        WCut        ... 1.0000e-14
Partially contracted basis set               ... on
Rotationally invariant grid construction     ... off
Angular grids for H and He will be reduced by one unit

Total number of grid points                  ...    28954
Total number of batches                      ...      256
Average number of points per batch           ...      113
Average number of grid points per atom       ...      603
UseSFitting                                  ... on

GRIDX 2
-------
General Integration Accuracy     IntAcc      ... 4.020
Radial Grid Type                 RadialGrid  ... OptM3 with GC (2021)
Angular Grid (max. ang.)         AngularGrid ... 2 (Lebedev-110)
Angular grid pruning method      GridPruning ... 4 (adaptive)
Weight generation scheme         WeightScheme... mBecke (2022)
Basis function cutoff            BFCut       ... 1.0000e-11
Integration weight cutoff        WCut        ... 1.0000e-14
Partially contracted basis set               ... on
Rotationally invariant grid construction     ... off
Angular grids for H and He will be reduced by one unit

Total number of grid points                  ...    62836
Total number of batches                      ...      516
Average number of points per batch           ...      121
Average number of grid points per atom       ...     1309
UseSFitting                                  ... on

GRIDX 3
-------
General Integration Accuracy     IntAcc      ... 4.338
Radial Grid Type                 RadialGrid  ... OptM3 with GC (2021)
Angular Grid (max. ang.)         AngularGrid ... 3 (Lebedev-194)
Angular grid pruning method      GridPruning ... 4 (adaptive)
Weight generation scheme         WeightScheme... mBecke (2022)
Basis function cutoff            BFCut       ... 1.0000e-11
Integration weight cutoff        WCut        ... 1.0000e-14
Partially contracted basis set               ... on
Rotationally invariant grid construction     ... off
Angular grids for H and He will be reduced by one unit

Total number of grid points                  ...   137262
Total number of batches                      ...     1096
Average number of points per batch           ...      125
Average number of grid points per atom       ...     2860
UseSFitting                                  ... on
Initializing property integral containers    ... done (  0.0 sec)

SHARK setup successfully completed in   3.4 seconds

Maximum memory used throughout the entire STARTUP-calculation: 98.9 MB
[ga01:973681] 24 more processes have sent help message help-mpi-btl-openib.txt / error in device init
[ga01:973681] Set MCA parameter "orte_base_help_aggregate" to 0 to see all help / error messages
--------------------------------------------------------------------------
WARNING: There was an error initializing an OpenFabrics device.

  Local host:   ga01
  Local device: mlx5_0
--------------------------------------------------------------------------


           ************************************************************
           *        Program running with 25 parallel MPI-processes    *
           *              working on a common directory               *
           ************************************************************
-------------------------------------------------------------------------------
                                 ORCA GUESS
                   Start orbitals & Density for SCF / CASSCF
-------------------------------------------------------------------------------

------------
SCF SETTINGS
------------
Hamiltonian:
 Density Functional     Method          .... DFT(GTOs)
 Exchange Functional    Exchange        .... B88
   X-Alpha parameter    XAlpha          ....  0.666667
   Becke's b parameter  XBeta           ....  0.004200
 Correlation Functional Correlation     .... LYP
 LDA part of GGA corr.  LDAOpt          .... VWN-5
 Gradients option       PostSCFGGA      .... off
 Hybrid DFT is turned on
   Fraction HF Exchange ScalHFX         ....  0.200000
   Scaling of DF-GGA-X  ScalDFX         ....  0.720000
   Scaling of DF-GGA-C  ScalDFC         ....  0.810000
   Scaling of DF-LDA-C  ScalLDAC        ....  1.000000
   Perturbative correction              ....  0.000000
   NL short-range parameter             ....  4.800000
 RI-approximation to the Coulomb term is turned on
   Number of AuxJ basis functions       .... 1554
   RIJ-COSX (HFX calculated with COS-X)).... on


General Settings:
 Integral files         IntName         .... honokiol2-opt_FEC
 Hartree-Fock type      HFTyp           .... RHF
 Total Charge           Charge          ....    0
 Multiplicity           Mult            ....    1
 Number of Electrons    NEL             ....  196
 Basis Dimension        Dim             ....  963
 Nuclear Repulsion      ENuc            ....   2427.8357822629 Eh

Convergence Acceleration:
 AO-DIIS                CNVDIIS         .... on
   Start iteration      DIISMaxIt       ....    12
   Startup error        DIISStart       ....  0.200000
   # of expansion vecs  DIISMaxEq       ....     5
   Bias factor          DIISBfac        ....   1.050
   Max. coefficient     DIISMaxC        ....  10.000
 MO-DIIS                CNVKDIIS        .... off
 Trust-Rad. Augm. Hess. CNVTRAH         .... auto
   Auto Start mean grad. ratio tolernc. ....  1.125000
   Auto Start start iteration           ....    50
   Auto Start num. interpolation iter.  ....    10
   Max. Number of Micro iterations      ....    24
   Max. Number of Macro iterations      .... Maxiter - #DIIS iter
   Number of Davidson start vectors     ....     2
   Converg. threshold    (grad. norm)   ....   1.000e-05
   Grad. Scal. Fac. for Micro threshold ....   0.100
   Minimum threshold for Micro iter.    ....   1.000e-02
   NR start threshold (gradient norm)   ....   1.000e-04
   Initial trust radius                 ....   0.400
   Minimum AH scaling param. (alpha)    ....   1.000
   Maximum AH scaling param. (alpha)    .... 1000.000
   Quad. conv. algorithm                .... NR
   White noise on init. David. guess    .... on
   Maximum white noise                  ....   0.010
   Pseudo random numbers                .... off
   Inactive MOs                         .... canonical
   Orbital update algorithm             .... Taylor
   Preconditioner                       .... Diag
   Full preconditioner red. dimension   ....   250
 SOSCF                  CNVSOSCF        .... on
   Start iteration      SOSCFMaxIt      ....   150
   Startup grad/error   SOSCFStart      ....  0.003300
   Hessian update       SOSCFHessUp     .... L-BFGS
 Level Shifting         CNVShift        .... on
   Level shift para.    LevelShift      ....    0.2500
   Turn off err/grad.   ShiftErr        ....    0.0010
 Zerner damping         CNVZerner       .... off
 Static damping         CNVDamp         .... on
   Fraction old density DampFac         ....    0.7000
   Max. Damping (<1)    DampMax         ....    0.9800
   Min. Damping (>=0)   DampMin         ....    0.0000
   Turn off err/grad.   DampErr         ....    0.1000

SCF Procedure:
 Maximum # iterations   MaxIter         ....   125
 SCF integral mode      SCFMode         .... Direct
   Integral package                     .... SHARK and LIBINT hybrid scheme
 Reset frequency        DirectResetFreq ....    20
 Integral Threshold     Thresh          ....  2.500e-11 Eh
 Primitive CutOff       TCut            ....  2.500e-12 Eh

Convergence Tolerance:
 Convergence Check Mode ConvCheckMode   .... Total+1el-Energy
 Convergence forced     ConvForced      .... 0
 Energy Change          TolE            ....  1.000e-08 Eh
 1-El. energy change                    ....  1.000e-05 Eh
 Orbital Gradient       TolG            ....  1.000e-05
 Orbital Rotation angle TolX            ....  1.000e-05
 DIIS Error             TolErr          ....  5.000e-07

------------------------------
INITIAL GUESS: MODEL POTENTIAL
------------------------------
Loading Hartree-Fock densities                     ... done
Calculating cut-offs                               ... done
Initializing the effective Hamiltonian             ... done
Setting up the integral package (SHARK)            ... done
Starting the Coulomb interaction                   ... done (   0.2 sec)
Making the grid                                    ... done (   0.3 sec)
Mapping shells                                     ... done
Starting the XC term evaluation                    ... done (   0.1 sec)
  promolecular density results
     # of electrons  =    196.002239952
     EX              =   -165.316141298
     EC              =     -6.727103945
     EX+EC           =   -172.043245243
Transforming the Hamiltonian                       ... done (   0.1 sec)
Diagonalizing the Hamiltonian                      ... done (   0.1 sec)
Back transforming the eigenvectors                 ... done (   0.0 sec)
Now organizing SCF variables                       ... done
                      ------------------
                      INITIAL GUESS DONE (   0.9 sec)
                      ------------------
             **** ENERGY FILE WAS UPDATED (honokiol2-opt_FEC.en.tmp) ****
Finished Guess after   1.8 sec
Maximum memory used throughout the entire GUESS-calculation: 81.1 MB
[ga01:973790] 24 more processes have sent help message help-mpi-btl-openib.txt / error in device init
[ga01:973790] Set MCA parameter "orte_base_help_aggregate" to 0 to see all help / error messages
--------------------------------------------------------------------------
WARNING: There was an error initializing an OpenFabrics device.

  Local host:   ga01
  Local device: mlx5_0
--------------------------------------------------------------------------


           ************************************************************
           *        Program running with 25 parallel MPI-processes    *
           *              working on a common directory               *
           ************************************************************

-------------------------------------------------------------------------------------------
                                      ORCA LEAN-SCF
                              memory conserving SCF solver
-------------------------------------------------------------------------------------------

----------------------------------------D-I-I-S--------------------------------------------
Iteration    Energy (Eh)           Delta-E    RMSDP     MaxDP     DIISErr   Damp  Time(sec)
-------------------------------------------------------------------------------------------
               ***  Starting incremental Fock matrix formation  ***
[ga01:973896] 24 more processes have sent help message help-mpi-btl-openib.txt / error in device init
[ga01:973896] Set MCA parameter "orte_base_help_aggregate" to 0 to see all help / error messages
    1    -1287.8616356003212786     0.00e+00  1.28e-03  1.84e-01  2.96e-01  0.700   5.3
    2    -1288.2049760711884119    -3.43e-01  1.13e-03  1.95e-01  1.05e-01  0.700   3.5
                               ***Turning on AO-DIIS***
    3    -1288.3421251722734269    -1.37e-01  4.25e-04  5.65e-02  3.88e-02  0.700   3.0
    4    -1288.4247934599029577    -8.27e-02  6.12e-04  3.96e-02  1.86e-02  0.000   2.9
    5    -1288.6053515404078098    -1.81e-01  2.86e-04  4.93e-02  5.54e-03  0.000   2.9
                              *** Initializing SOSCF ***
---------------------------------------S-O-S-C-F--------------------------------------
Iteration    Energy (Eh)           Delta-E    RMSDP     MaxDP     MaxGrad    Time(sec)
--------------------------------------------------------------------------------------
    6    -1288.6062911232147599    -9.40e-04  1.02e-04  1.61e-02  1.95e-03     3.1
               *** Restarting incremental Fock matrix formation ***
    7    -1288.6063436597642067    -5.25e-05  8.20e-05  1.10e-02  2.10e-04     5.7
    8    -1288.6063350427962177     8.62e-06  1.34e-05  1.47e-03  5.42e-04     3.8
    9    -1288.6063519853746584    -1.69e-05  9.33e-06  6.08e-04  6.76e-05     3.3
   10    -1288.6063515482546791     4.37e-07  3.20e-06  3.41e-04  7.99e-05     3.1
   11    -1288.6063523228276608    -7.75e-07  2.06e-06  1.49e-04  1.30e-05     2.8
   12    -1288.6063523213942972     1.43e-09  1.24e-06  9.79e-05  2.07e-05     2.6
                 **** Energy Check signals convergence ****

               *****************************************************
               *                     SUCCESS                       *
               *           SCF CONVERGED AFTER  12 CYCLES          *
               *****************************************************

Recomputing exchange energy using gridx3       ... done (    8.418 sec)
Old exchange energy                            :    -33.534107765 Eh
New exchange energy                            :    -33.534158952 Eh
Exchange energy change after final integration :     -0.000051187 Eh
Total energy after final integration           :  -1288.606403508 Eh
             **** ENERGY FILE WAS UPDATED (honokiol2-opt_FEC.en.tmp) ****

----------------
TOTAL SCF ENERGY
----------------

Total Energy       :      -1288.60640350790050 Eh          -35064.76290 eV

Components:
Nuclear Repulsion  :       2427.83578226293776 Eh           66064.77030 eV
Electronic Energy  :      -3716.44213458433205 Eh         -101129.53181 eV
One Electron Energy:      -6584.52959373594331 Eh         -179174.15928 eV
Two Electron Energy:       2868.08745915161126 Eh           78044.62748 eV

Virial components:
Potential Energy   :      -2571.72772306461047 Eh          -69980.26907 eV
Kinetic Energy     :       1283.12131955671020 Eh           34915.50618 eV
Virial Ratio       :          2.00427479761079

DFT components:
N(Alpha)           :       98.000196699628 electrons
N(Beta)            :       98.000196699628 electrons
N(Total)           :      196.000393399256 electrons
E(X)               :     -133.331392763631 Eh       
E(C)               :       -7.925824989007 Eh       
E(XC)              :     -141.257217752637 Eh       

---------------
SCF CONVERGENCE
---------------

  Last Energy change         ...   -1.4334e-09  Tolerance :   1.0000e-08
  Last MAX-Density change    ...    9.7871e-05  Tolerance :   1.0000e-07
  Last RMS-Density change    ...    1.2370e-06  Tolerance :   5.0000e-09
  Last DIIS Error            ...    1.9511e-03  Tolerance :   5.0000e-07
  Last Orbital Gradient      ...    2.0686e-05  Tolerance :   1.0000e-05
  Last Orbital Rotation      ...    3.2026e-05  Tolerance :   1.0000e-05


----------------
ORBITAL ENERGIES
----------------

  NO   OCC          E(Eh)            E(eV) 
   0   2.0000     -24.702439      -672.1875 
   1   2.0000     -19.209410      -522.7146 
   2   2.0000     -19.206735      -522.6418 
   3   2.0000     -19.163240      -521.4583 
   4   2.0000     -19.135809      -520.7118 
   5   2.0000     -19.132463      -520.6208 
   6   2.0000     -10.368510      -282.1415 
   7   2.0000     -10.341550      -281.4079 
   8   2.0000     -10.268177      -279.4113 
   9   2.0000     -10.240436      -278.6564 
  10   2.0000     -10.222083      -278.1570 
  11   2.0000     -10.202348      -277.6200 
  12   2.0000     -10.197874      -277.4983 
  13   2.0000     -10.191481      -277.3243 
  14   2.0000     -10.189269      -277.2641 
  15   2.0000     -10.183318      -277.1022 
  16   2.0000     -10.179774      -277.0057 
  17   2.0000     -10.178448      -276.9696 
  18   2.0000     -10.176317      -276.9117 
  19   2.0000     -10.173631      -276.8386 
  20   2.0000     -10.170742      -276.7600 
  21   2.0000     -10.170298      -276.7479 
  22   2.0000     -10.166335      -276.6400 
  23   2.0000     -10.163183      -276.5543 
  24   2.0000     -10.162616      -276.5388 
  25   2.0000     -10.157633      -276.4033 
  26   2.0000     -10.156109      -276.3618 
  27   2.0000      -1.244249       -33.8577 
  28   2.0000      -1.180540       -32.1241 
  29   2.0000      -1.074931       -29.2504 
  30   2.0000      -1.067823       -29.0569 
  31   2.0000      -1.067450       -29.0468 
  32   2.0000      -1.040759       -28.3205 
  33   2.0000      -0.871509       -23.7150 
  34   2.0000      -0.848560       -23.0905 
  35   2.0000      -0.824604       -22.4386 
  36   2.0000      -0.800747       -21.7894 
  37   2.0000      -0.795227       -21.6392 
  38   2.0000      -0.773898       -21.0588 
  39   2.0000      -0.765897       -20.8411 
  40   2.0000      -0.737294       -20.0628 
  41   2.0000      -0.720786       -19.6136 
  42   2.0000      -0.705135       -19.1877 
  43   2.0000      -0.698637       -19.0109 
  44   2.0000      -0.671646       -18.2764 
  45   2.0000      -0.644947       -17.5499 
  46   2.0000      -0.632401       -17.2085 
  47   2.0000      -0.621529       -16.9127 
  48   2.0000      -0.594013       -16.1639 
  49   2.0000      -0.585918       -15.9436 
  50   2.0000      -0.582352       -15.8466 
  51   2.0000      -0.580148       -15.7866 
  52   2.0000      -0.571772       -15.5587 
  53   2.0000      -0.552632       -15.0379 
  54   2.0000      -0.549580       -14.9548 
  55   2.0000      -0.539918       -14.6919 
  56   2.0000      -0.533754       -14.5242 
  57   2.0000      -0.506355       -13.7786 
  58   2.0000      -0.500674       -13.6240 
  59   2.0000      -0.491084       -13.3631 
  60   2.0000      -0.484756       -13.1909 
  61   2.0000      -0.482177       -13.1207 
  62   2.0000      -0.475729       -12.9452 
  63   2.0000      -0.470190       -12.7945 
  64   2.0000      -0.461789       -12.5659 
  65   2.0000      -0.458927       -12.4880 
  66   2.0000      -0.450339       -12.2544 
  67   2.0000      -0.446138       -12.1400 
  68   2.0000      -0.431786       -11.7495 
  69   2.0000      -0.429085       -11.6760 
  70   2.0000      -0.424361       -11.5475 
  71   2.0000      -0.423489       -11.5237 
  72   2.0000      -0.421740       -11.4761 
  73   2.0000      -0.418536       -11.3889 
  74   2.0000      -0.406105       -11.0507 
  75   2.0000      -0.405469       -11.0334 
  76   2.0000      -0.399629       -10.8745 
  77   2.0000      -0.396695       -10.7946 
  78   2.0000      -0.386204       -10.5091 
  79   2.0000      -0.379557       -10.3283 
  80   2.0000      -0.378247       -10.2926 
  81   2.0000      -0.371042       -10.0966 
  82   2.0000      -0.363001        -9.8778 
  83   2.0000      -0.359826        -9.7914 
  84   2.0000      -0.356093        -9.6898 
  85   2.0000      -0.353354        -9.6152 
  86   2.0000      -0.345386        -9.3984 
  87   2.0000      -0.338557        -9.2126 
  88   2.0000      -0.334985        -9.1154 
  89   2.0000      -0.326200        -8.8764 
  90   2.0000      -0.324987        -8.8433 
  91   2.0000      -0.314820        -8.5667 
  92   2.0000      -0.291773        -7.9395 
  93   2.0000      -0.261895        -7.1265 
  94   2.0000      -0.260494        -7.0884 
  95   2.0000      -0.256351        -6.9757 
  96   2.0000      -0.229115        -6.2345 
  97   2.0000      -0.206949        -5.6314 
  98   0.0000      -0.033399        -0.9088 
  99   0.0000      -0.023216        -0.6317 
 100   0.0000      -0.012432        -0.3383 
 101   0.0000       0.002754         0.0749 
 102   0.0000       0.004724         0.1286 
 103   0.0000       0.007580         0.2063 
 104   0.0000       0.013792         0.3753 
 105   0.0000       0.026390         0.7181 
 106   0.0000       0.032922         0.8959 
 107   0.0000       0.045624         1.2415 
 108   0.0000       0.048769         1.3271 
*Only the first 10 virtual orbitals were printed.

                    ********************************
                    * MULLIKEN POPULATION ANALYSIS *
                    ********************************

-----------------------
MULLIKEN ATOMIC CHARGES
-----------------------
   0 O :   -0.390818
   1 O :   -0.443330
   2 C :    0.123972
   3 C :    0.101279
   4 C :    0.115514
   5 C :   -0.266803
   6 C :    0.113857
   7 C :   -0.259545
   8 C :    0.208806
   9 C :   -0.231186
  10 C :    0.244736
  11 C :   -0.253529
  12 C :   -0.186100
  13 C :   -0.135532
  14 C :   -0.206181
  15 C :   -0.234220
  16 C :   -0.138080
  17 C :   -0.089444
  18 C :   -0.274840
  19 C :   -0.265661
  20 H :    0.119626
  21 H :    0.120114
  22 H :    0.122910
  23 H :    0.123167
  24 H :    0.120873
  25 H :    0.098418
  26 H :    0.104990
  27 H :    0.092214
  28 H :    0.110666
  29 H :    0.103119
  30 H :    0.120418
  31 H :    0.101123
  32 H :    0.332687
  33 H :    0.324857
  34 H :    0.126516
  35 H :    0.121285
  36 H :    0.107346
  37 H :    0.100228
  38 H :    0.096295
  39 H :    0.129983
  40 O :   -0.246514
  41 C :   -0.023412
  42 C :    0.249739
  43 C :    0.429095
  44 O :   -0.298772
  45 O :   -0.238485
  46 F :   -0.215535
  47 H :    0.134154
Sum of atomic charges:    0.0000000

--------------------------------
MULLIKEN REDUCED ORBITAL CHARGES
--------------------------------
  0 O s       :     3.762965  s :     3.762965
      pz      :     1.508103  p :     4.595959
      px      :     1.367908
[...]
      f+1     :     0.001443
      f-1     :     0.001380
      f+2     :     0.000870
      f-2     :     0.000788
      f+3     :     0.000991
      f-3     :     0.000735

 41 C s       :     2.813790  s :     2.813790
      pz      :     1.044944  p :     2.895631
      px      :     0.816293
      py      :     1.034394
      dz2     :     0.095746  d :     0.457129
      dxz     :     0.101501
      dyz     :     0.034037
      dx2y2   :     0.135019
      dxy     :     0.090825
      f0      :     0.006301  f :     0.068530
      f+1     :     0.009756
      f-1     :     0.006208
      f+2     :     0.009431
      f-2     :     0.010952
      f+3     :     0.012369
      f-3     :     0.013512

 42 C s       :     2.788189  s :     2.788189
      pz      :     0.913768  p :     2.677534
      px      :     0.914882
      py      :     0.848883
      dz2     :     0.125366  d :     0.784409
      dxz     :     0.177517
      dyz     :     0.172402
      dx2y2   :     0.115382
      dxy     :     0.193742
      f0      :     0.018404  f :     0.141596
      f+1     :     0.019568
      f-1     :     0.018898
      f+2     :     0.022708
      f-2     :     0.021557
      f+3     :     0.019508
      f-3     :     0.020954

 43 C s       :     2.737233  s :     2.737233
      pz      :     0.864169  p :     2.583326
      px      :     0.911780
      py      :     0.807377
      dz2     :     0.247303  d :     1.072994
      dxz     :     0.266093
      dyz     :     0.156115
      dx2y2   :     0.212389
      dxy     :     0.191094
      f0      :     0.024813  f :     0.192435
      f+1     :     0.049281
      f-1     :     0.016876
      f+2     :     0.023674
      f-2     :     0.029833
      f+3     :     0.025825
      f-3     :     0.022134

 44 O s       :     3.389728  s :     3.389728
      pz      :     1.507156  p :     4.406045
      px      :     1.506508
      py      :     1.392381
      dz2     :     0.008852  d :     0.066148
      dxz     :     0.019746
      dyz     :     0.006800
      dx2y2   :     0.014528
      dxy     :     0.016221
      f0      :     0.000736  f :     0.006687
      f+1     :     0.001129
      f-1     :     0.000224
      f+2     :     0.001217
      f-2     :     0.001296
      f+3     :     0.000935
      f-3     :     0.001150

 45 O s       :     3.265264  s :     3.265264
      pz      :     1.512421  p :     4.330033
      px      :     1.263293
      py      :     1.554320
      dz2     :     0.017514  d :     0.104250
      dxz     :     0.035899
      dyz     :     0.009506
      dx2y2   :     0.023589
      dxy     :     0.017743
      f0      :     0.000881  f :     0.007458
      f+1     :     0.001733
      f-1     :     0.000427
      f+2     :     0.001467
      f-2     :     0.001086
      f+3     :     0.000976
      f-3     :     0.000890

 46 F s       :     3.623093  s :     3.623093
      pz      :     1.792074  p :     5.225073
      px      :     1.777024
      py      :     1.655975
      dz2     :     0.003587  d :     0.028408
      dxz     :     0.003262
      dyz     :     0.007587
      dx2y2   :     0.005751
      dxy     :     0.008222
      f0      :     0.000132  f :     0.001333
      f+1     :     0.000079
      f-1     :     0.000183
      f+2     :     0.000192
      f-2     :     0.000277
      f+3     :     0.000259
      f-3     :     0.000212

 47 H s       :     0.800733  s :     0.800733
      pz      :     0.035935  p :     0.060116
      px      :     0.010304
      py      :     0.013877



                      *****************************
                      * MAYER POPULATION ANALYSIS *
                      *****************************

  NA   - Mulliken gross atomic population
  ZA   - Total nuclear charge
  QA   - Mulliken gross atomic charge
  VA   - Mayer's total valence
  BVA  - Mayer's bonded valence
  FA   - Mayer's free valence

  ATOM       NA         ZA         QA         VA         BVA        FA
  0 O      8.4030     8.0000    -0.4030     2.0856     2.0856     0.0000
  1 O      8.4410     8.0000    -0.4410     2.0073     2.0073     0.0000
  2 C      5.8910     6.0000     0.1090     3.3659     3.3659     0.0000
  3 C      5.9360     6.0000     0.0640     3.7287     3.7287    -0.0000
  4 C      5.8951     6.0000     0.1049     3.5323     3.5323     0.0000
  5 C      6.2393     6.0000    -0.2393     3.9752     3.9752    -0.0000
  6 C      5.8788     6.0000     0.1212     3.7295     3.7295     0.0000
  7 C      6.2545     6.0000    -0.2545     3.8507     3.8507     0.0000
  8 C      5.7804     6.0000     0.2196     3.9770     3.9770     0.0000
  9 C      6.1779     6.0000    -0.1779     3.9037     3.9037    -0.0000
 10 C      5.7491     6.0000     0.2509     3.7908     3.7908     0.0000
 11 C      6.2559     6.0000    -0.2559     3.9237     3.9237     0.0000
 12 C      6.1925     6.0000    -0.1925     3.8732     3.8732    -0.0000
 13 C      6.1345     6.0000    -0.1345     3.9148     3.9148     0.0000
 14 C      6.2350     6.0000    -0.2350     3.8565     3.8565    -0.0000
 15 C      6.2310     6.0000    -0.2310     3.9814     3.9814     0.0000
 16 C      6.1367     6.0000    -0.1367     3.7983     3.7983     0.0000
 17 C      6.0873     6.0000    -0.0873     3.8355     3.8355    -0.0000
 18 C      6.2745     6.0000    -0.2745     3.9115     3.9115    -0.0000
 19 C      6.2661     6.0000    -0.2661     3.9366     3.9366     0.0000
 20 H      0.8810     1.0000     0.1190     0.9809     0.9809    -0.0000
 21 H      0.8837     1.0000     0.1163     0.9833     0.9833     0.0000
 22 H      0.8805     1.0000     0.1195     0.9804     0.9804    -0.0000
 23 H      0.8737     1.0000     0.1263     0.9662     0.9662     0.0000
 24 H      0.8797     1.0000     0.1203     0.9754     0.9754     0.0000
 25 H      0.9004     1.0000     0.0996     0.9696     0.9696    -0.0000
 26 H      0.8953     1.0000     0.1047     0.9691     0.9691    -0.0000
 27 H      0.9079     1.0000     0.0921     0.9741     0.9741    -0.0000
 28 H      0.8938     1.0000     0.1062     0.9858     0.9858     0.0000
 29 H      0.8970     1.0000     0.1030     0.9917     0.9917     0.0000
 30 H      0.8803     1.0000     0.1197     0.9775     0.9775    -0.0000
 31 H      0.8984     1.0000     0.1016     0.9751     0.9751    -0.0000
 32 H      0.6698     1.0000     0.3302     0.9315     0.9315     0.0000
 33 H      0.6749     1.0000     0.3251     0.9275     0.9275     0.0000
 34 H      0.8741     1.0000     0.1259     0.9756     0.9756    -0.0000
 35 H      0.8790     1.0000     0.1210     0.9755     0.9755    -0.0000
 36 H      0.8926     1.0000     0.1074     0.9742     0.9742     0.0000
 37 H      0.9004     1.0000     0.0996     0.9780     0.9780     0.0000
 38 H      0.9019     1.0000     0.0981     0.9729     0.9729    -0.0000
 39 H      0.8707     1.0000     0.1293     0.9671     0.9671    -0.0000
 40 O      8.2452     8.0000    -0.2452     2.1560     2.1560    -0.0000
 41 C      6.0258     6.0000    -0.0258     3.8289     3.8289    -0.0000
 42 C      5.7478     6.0000     0.2522     4.0789     4.0789    -0.0000
 43 C      5.5625     6.0000     0.4375     4.3755     4.3755    -0.0000
 44 O      8.3054     8.0000    -0.3054     2.1783     2.1783    -0.0000
 45 O      8.2396     8.0000    -0.2396     2.1351     2.1351    -0.0000
 46 F      9.2151     9.0000    -0.2151     1.0538     1.0538     0.0000
 47 H      0.8639     1.0000     0.1361     0.9689     0.9689    -0.0000

  Mayer bond orders larger than 0.100000
B(  0-O ,  8-C ) :   1.1424 B(  0-O , 32-H ) :   0.8459 B(  1-O , 10-C ) :   1.0280 
B(  1-O , 33-H ) :   0.8580 B(  2-C ,  3-C ) :   0.8625 B(  2-C ,  7-C ) :   1.2996 
B(  2-C ,  8-C ) :   1.2470 B(  3-C ,  5-C ) :   1.4242 B(  3-C ,  9-C ) :   1.3512 
B(  4-C ,  5-C ) :   1.3531 B(  4-C , 10-C ) :   1.2841 B(  4-C , 11-C ) :   0.9039 
B(  5-C , 20-H ) :   0.9555 B(  6-C ,  7-C ) :   1.3903 B(  6-C , 12-C ) :   0.9150 
B(  6-C , 13-C ) :   1.3625 B(  7-C , 21-H ) :   0.9705 B(  8-C , 15-C ) :   1.4215 
B(  9-C , 14-C ) :   1.3889 B(  9-C , 22-H ) :   0.9929 B( 10-C , 14-C ) :   1.3671 
B( 11-C , 16-C ) :   0.9549 B( 11-C , 23-H ) :   0.9802 B( 11-C , 24-H ) :   0.9660 
B( 12-C , 17-C ) :   0.9670 B( 12-C , 25-H ) :   0.9640 B( 12-C , 26-H ) :   0.9726 
B( 13-C , 15-C ) :   1.4243 B( 13-C , 27-H ) :   0.9782 B( 14-C , 28-H ) :   0.9972 
B( 15-C , 29-H ) :   0.9826 B( 16-C , 18-C ) :   1.8880 B( 16-C , 30-H ) :   0.9560 
B( 17-C , 19-C ) :   1.9262 B( 17-C , 31-H ) :   0.9546 B( 18-C , 34-H ) :   0.9675 
B( 18-C , 35-H ) :   0.9650 B( 19-C , 36-H ) :   0.9662 B( 19-C , 37-H ) :   0.9625 
B( 38-H , 42-C ) :   0.9704 B( 39-H , 41-C ) :   0.9404 B( 40-O , 41-C ) :   0.9312 
B( 40-O , 43-C ) :   1.1685 B( 41-C , 42-C ) :   0.9815 B( 41-C , 47-H ) :   0.9561 
B( 42-C , 45-O ) :   1.0128 B( 42-C , 46-F ) :   1.0501 B( 43-C , 44-O ) :   2.0365 
B( 43-C , 45-O ) :   1.0854 

-------
TIMINGS
-------

Total SCF time: 0 days 0 hours 1 min 32 sec 

Total time                  ....      92.002 sec
Sum of individual times     ....      89.662 sec  ( 97.5%)

SCF preparation             ....       4.463 sec  (  4.9%)
Fock matrix formation       ....      53.355 sec  ( 58.0%)
  Startup                   ....       3.556 sec  (  6.7% of F)
  Split-RI-J                ....       8.475 sec  ( 15.9% of F)
  Chain of spheres X        ....      31.147 sec  ( 58.4% of F)
  XC integration            ....       4.041 sec  (  7.6% of F)
    XC Preparation          ....       0.000 sec  (  0.0% of XC)
    Basis function eval.    ....       0.437 sec  ( 10.8% of XC)
    Density eval.           ....       0.545 sec  ( 13.5% of XC)
    XC-Functional eval.     ....       0.042 sec  (  1.0% of XC)
    XC-Potential eval.      ....       0.589 sec  ( 14.6% of XC)
Diagonalization             ....       0.000 sec  (  0.0%)
Density matrix formation    ....       3.078 sec  (  3.3%)
Total Energy calculation    ....       3.999 sec  (  4.3%)
Population analysis         ....       4.613 sec  (  5.0%)
Orbital Transformation      ....       2.315 sec  (  2.5%)
Orbital Orthonormalization  ....       0.000 sec  (  0.0%)
DIIS solution               ....       4.977 sec  (  5.4%)
SOSCF solution              ....      12.863 sec  ( 14.0%)
Finished LeanSCF after  92.7 sec

Maximum memory used throughout the entire LEANSCF-calculation: 158.4 MB

-------------------------   --------------------
FINAL SINGLE POINT ENERGY     -1288.606811986633
-------------------------   --------------------

                                *** OPTIMIZATION RUN DONE ***

--------------------------------------------------------------------------
WARNING: There was an error initializing an OpenFabrics device.

  Local host:   ga01
  Local device: mlx5_0
--------------------------------------------------------------------------


           ************************************************************
           *        Program running with 25 parallel MPI-processes    *
           *              working on a common directory               *
           ************************************************************

------------------------------------------------------------------------------
                              ORCA PROPERTY CALCULATIONS
------------------------------------------------------------------------------

GBWName                                 ... honokiol2-opt_FEC.gbw
Number of atoms                         ...     48
Number of basis functions               ...    963
Max core memory                         ...   5000 MB

Electric properties:
Dipole moment                           ... YES
Quadrupole moment                       ...  NO
Static polarizability (Dipole/Dipole)   ...  NO
Static polarizability (Dipole/Quad.)    ...  NO
Static polarizability (Quad./Quad.)     ...  NO
Static polarizability (Velocity)        ...  NO

Atomic electric properties:
Dipole moment                           ...  NO
Quadrupole moment                       ...  NO
Static polarizability                   ...  NO

Choice of electric origin               ... Center of mass
Position of electric origin             ...    -1.705037     0.366221     2.081925

General magnetic properties:
Magnetizability                         ...  NO

EPR properties:
g-Tensor (aka g-matrix)                 ...  NO
Zero-Field splitting spin-orbit         ...  NO
Zero-field splitting spin-spin          ...  NO
Hyperfine couplings                     ...  NO (   0 nuclei)
Quadrupole couplings                    ...  NO (   0 nuclei)
Contact density                         ...  NO (   0 nuclei)

NMR properties:
Chemical shifts                         ...  NO (   0 nuclei)
Spin-rotation constants                 ...  NO (   0 nuclei)
Spin-spin couplings                     ...  NO (   0 nuclei,    0 pairs)

Choice of magnetic origin               ... GIAO
Position of magnetic origin             ...     0.000000     0.000000     0.000000

Properties with geometric perturbations:
SCF Hessian                             ...  NO
IR spectrum                             ...  NO
VCD spectrum                            ...  NO
X-ray spectroscopy properties:
SCF XES/XAS/RIXS spectra                ...  NO


-------------
DIPOLE MOMENT
-------------

Method             : SCF
Type of density    : Electron Density
Multiplicity       :   1
Irrep              :   0
Energy             : -1288.6068119866331472 Eh
Relativity type    : 
Basis              : AO
                                X                 Y                 Z
Electronic contribution:     -8.890423599      14.576222155      24.658724288
Nuclear contribution   :      6.931175733     -15.913152381     -24.581858436
                        -----------------------------------------
Total Dipole Moment    :     -1.959247866      -1.336930226       0.076865852
                        -----------------------------------------
Magnitude (a.u.)       :      2.373171504
Magnitude (Debye)      :      6.032122584



--------------------
Rotational spectrum 
--------------------
 
Rotational constants in cm-1:             0.009137             0.003585             0.002824 
Rotational constants in MHz :           273.933638           107.474084            84.659254 

Dipole components along the rotational axes: 
x,y,z [a.u.] :     1.491666    -1.765147    -0.539566 
x,y,z [Debye]:     3.791514    -4.486646    -1.371469 

 

Dipole moment calculation done in   0.5 sec 

Maximum memory used throughout the entire PROP-calculation: 88.2 MB
[ga01:999098] 24 more processes have sent help message help-mpi-btl-openib.txt / error in device init
[ga01:999098] Set MCA parameter "orte_base_help_aggregate" to 0 to see all help / error messages
--------------------------------------------------------------------------
WARNING: There was an error initializing an OpenFabrics device.

  Local host:   ga01
  Local device: mlx5_0
--------------------------------------------------------------------------
[ga01:999208] 24 more processes have sent help message help-mpi-btl-openib.txt / error in device init
[ga01:999208] Set MCA parameter "orte_base_help_aggregate" to 0 to see all help / error messages

--------------------------------
SUGGESTED CITATIONS FOR THIS RUN
--------------------------------

Below you find a list of papers that are relevant to this ORCA run
We neither can nor want to force you to cite these papers, but we appreciate if you do
You receive ORCA, which is the product of decades of hard work by many enthusiastic individuals, for free
The only thing we kindly ask in return is that you cite our papers,
We deeply appreciate it, if you show your appreciation for ORCA by not just citing the generic ORCA reference.

Please note that relegating all ORCA citations to the supporting information does *not* help us.
SI sections are not indexed - citations you put there will not count into any citation statistics
But we need these citations in order to attract the funding resources that allow us to do what we are doing

Therefore, if you are a happy ORCA user, please consider citing a few of the papers listed below in the main body of your paper

In addition to the list printed below, the program has created the file honokiol2-opt_FEC.bibtex that contains the list in bibtex format
You can import this file easily into all common literature databanks and citation aid programs


List of essential papers. We consider these as the minimum necessary citations

  1. Neese,F.
     Software update: the ORCA program system, version 5.0
     WIRES Comput. Molec. Sci., 2022 12(1)e1606
     doi.org/10.1002/wcms.1606

List of papers to cite with high priority. The work reported in these papers was absolutely
necessary for this run to complete.
Our perspective: the developers of density functionals and basis sets usually get cited in chemistry papers
Good! But without the algorithms to do something with them, the functionals or basis sets would not do anything.
Hence, in our opinion, the algorithm design and method developments papers are equally worthy of getting cited

  1. Neese,F.
     An improvement of the resolution of the identity approximation for the formation of the Coulomb matrix
     J. Comp. Chem., 2003 24(14)1740-1747
     doi.org/10.1002/jcc.10318
  2. Neese,F.; Wennmohs,F.; Hansen,A.; Becker,U.
     Efficient, approximate and parallel Hartree-Fock and hybrid DFT calculations. A 'chain-of-spheres' algorithm for the Hartree-Fock exchange
     Chem. Phys., 2009 356(1-3)98-109
     doi.org/10.1016/j.chemphys.2008.10.036
  3. Helmich-Paris,B.; de Souza,B.; Neese,F.; Izsák,R.
     An improved chain of spheres for exchange algorithm
     J. Chem. Phys., 2021 155 104109
     doi.org/doi: 10.1063/5.0058766.
  4. Neese,F.
     The SHARK Integral Generation and Digestion System
     J. Comp. Chem., 2022  1-16
     doi.org/10.1002/jcc.26942

List of suggested additional citations. These are papers that are important in the 'surrounding' of 
of this run, or papers that preceded the highly important papers. If you like your results we are grateful for a citation.

  1. Izsak,R.; Neese,F.
     An overlap fitted chain of spheres exchange method
     J. Chem. Phys., 2011 135 144105
     doi.org/10.1063/1.3646921
  2. Izsak,R.; Hansen,A.; Neese,F.
     The resolution of identity and chain of spheres approximations for the LPNO-CCSD singles Fock term
     Molec. Phys., 2012 110 2413-2417
     doi.org/10.1080/00268976.2012.687466
  3. Neese,F.
     The ORCA program system
     WIRES Comput. Molec. Sci., 2012 2(1)73-78
     doi.org/10.1002/wcms.81
  4. Izsak,R.; Neese,F.; Klopper,W.
     Robust fitting techniques in the chain of spheres approximation to the Fock exchange: The role of the complementary space
     J. Chem. Phys., 2013 139 
     doi.org/10.1063/1.4819264
  5. Neese,F.
     Software update: the ORCA program system, version 4.0
     WIRES Comput. Molec. Sci., 2018 8(1)1-6
     doi.org/10.1002/wcms.1327
  6. Neese,F.; Wennmohs,F.; Becker,U.; Riplinger,C.
     The ORCA quantum chemistry program package
     J. Chem. Phys., 2020 152 Art. No. L224108
     doi.org/10.1063/5.0004608

List of optional additional citations

  1. Neese,F.
     Approximate second-order SCF convergence for spin unrestricted wavefunctions
     Chem. Phys. Lett., 2000 325(1-3)93-98
     doi.org/10.1016/s0009-2614(00)00662-x

Timings for individual modules:

Sum of individual times          ...     3607.735 sec (=  60.129 min)
Startup calculation              ...      351.375 sec (=   5.856 min)   9.7 %
SCF iterations                   ...     2652.090 sec (=  44.201 min)  73.5 %
Property calculations            ...        3.087 sec (=   0.051 min)   0.1 %
SCF Gradient evaluation          ...      600.692 sec (=  10.012 min)  16.7 %
Geometry relaxation              ...        0.491 sec (=   0.008 min)   0.0 %
                             ****ORCA TERMINATED NORMALLY****
TOTAL RUN TIME: 0 days 1 hours 0 minutes 53 seconds 395 msec
