
                                 *****************
                                 * O   R   C   A *
                                 *****************

                                            #,                                       
                                            ###                                      
                                            ####                                     
                                            #####                                    
                                            ######                                   
                                           ########,                                 
                                     ,,################,,,,,                         
                               ,,#################################,,                 
                          ,,##########################################,,             
                       ,#########################################, ''#####,          
                    ,#############################################,,   '####,        
                  ,##################################################,,,,####,       
                ,###########''''           ''''###############################       
              ,#####''   ,,,,##########,,,,          '''####'''          '####       
            ,##' ,,,,###########################,,,                        '##       
           ' ,,###''''                  '''############,,,                           
         ,,##''                                '''############,,,,        ,,,,,,###''
      ,#''                                            '''#######################'''  
     '                                                          ''''####''''         
             ,#######,   #######,   ,#######,      ##                                
            ,#'     '#,  ##    ##  ,#'     '#,    #''#        ,####,   ,####,        
            ##       ##  ##   ,#'  ##            #'  '#       #'       #'  '#        
            ##       ##  #######   ##           ,######,      #####,   #    #        
            '#,     ,#'  ##    ##  '#,     ,#' ,#      #,     #,   #   #,  ,#        
             '#######'   ##     ##  '#######'  #'      '#     '####' # '####'        



                #########################################################
                #                        -***-                          #
                #          Department of theory and spectroscopy        #
                #                                                       #
                #                      Frank Neese                      #
                #                                                       #
                #     Directorship, Architecture, Infrastructure        #
                #                    SHARK, DRIVERS                     #
                #        Core code/Algorithms in most modules           #
                #                                                       #
                #        Max Planck Institute fuer Kohlenforschung      #
                #                Kaiser Wilhelm Platz 1                 #
                #                 D-45470 Muelheim/Ruhr                 #
                #                      Germany                          #
                #                                                       #
                #                  All rights reserved                  #
                #                        -***-                          #
                #########################################################


                         Program Version 6.0.1  -  RELEASE   -


 With contributions from (in alphabetic order):
[Max-Planck-Institut fuer Kohlenforschung]                               
  Daniel Aravena         : Magnetic Suceptibility                        
  Michael Atanasov       : Ab Initio Ligand Field Theory (pilot matlab implementation)
  Alexander A. Auer      : GIAO ZORA, VPT2 properties, NMR spectrum      
  Ute Becker             : All parallelization in ORCA, NUMFREQ, NUMCALC 
  Giovanni Bistoni       : ED, misc. LED, open-shell LED, HFLD           
  Martin Brehm           : Molecular dynamics                            
  Dmytro Bykov           : pre 5.0 version of the SCF Hessian            
  Marcos Casanova-Páez   : Triplet and SCS-CIS(D). UHF-(DLPNO)-IP/EA/STEOM-CCSD. UHF-CVS-IP/STEOM-CCSD   
  Vijay G. Chilkuri      : MRCI spin determinant printing, contributions to CSF-ICE 
  Pauline Colinet        : FMM embedding                                 
  Dipayan Datta          : RHF DLPNO-CCSD density                        
  Achintya Kumar Dutta   : EOM-CC, STEOM-CC                              
  Nicolas Foglia         : Exact transition moments, OPA infrastructure, MCD improvements    
  Dmitry Ganyushin       : Spin-Orbit,Spin-Spin,Magnetic field MRCI      
  Miquel Garcia-Rates    : C-PCM and meta-GGA Hessian, CCSD/C-PCM, Gaussian charge scheme 
  Tiago L. C. Gouveia    : GS-ROHF, GS-ROCIS                             
  Yang Guo               : DLPNO-NEVPT2, F12-NEVPT2, CIM, IAO-localization        
  Andreas Hansen         : Spin unrestricted coupled pair/coupled cluster methods 
  Ingolf Harden          : AUTO-CI MPn and infrastructure                
  Benjamin Helmich-Paris : MC-RPA, TRAH-(SCF,CASSCF), AVAS, COSX integrals, SCF dyn. polar. 
  Lee Huntington         : MR-EOM, pCC                                   
  Robert Izsak           : Overlap fitted RIJCOSX, COSX-SCS-MP3, EOM     
  Riya Kayal             : Wick's Theorem for AUTO-CI, AUTO-CI UHF-CCSDT 
  Emily Kempfer          : AUTO-CI, RHF CISDT and CCSDT                  
  Christian Kollmar      : KDIIS, OOCD, Brueckner-CCSD(T), CCSD density, CASPT2, CASPT2-K, improved NEVPT2 
  Axel Koslowski         : Symmetry handling                             
  Simone Kossmann        : meta-GGA functionals, TD-DFT gradient, OOMP2, (MP2 Hessian; deprecated post 5.0) 
  Lucas Lang             : DCDCAS                                        
  Marvin Lechner         : AUTO-CI (C++ implementation), FIC-MRCC        
  Spencer Leger          : CASSCF response                               
  Dagmar Lenk            : GEPOL surface, SMD, ORCA-2-JSON               
  Dimitrios Liakos       : Extrapolation schemes; Compound Job, initial MDCI parallelization 
  Dimitrios Manganas     : Further ROCIS development; embedding schemes. LFT, Crystal Embedding 
  Dimitrios Pantazis     : SARC Basis sets                               
  Anastasios Papadopoulos: AUTO-CI, single reference methods and gradients 
  Taras Petrenko         : pre 6.0 DFT Hessian and TD-DFT gradient, (ASA, deprecated), ECA, 1-Electron XAS/XES, NRVS 
  Peter Pinski           : DLPNO-MP2, DLPNO-MP2 Gradient                 
  Christoph Reimann      : Effective Core Potentials                     
  Marius Retegan         : Local ZFS, SOC                                
  Christoph Riplinger    : Optimizer, TS searches, QM/MM, DLPNO-CCSD(T), (RO)-DLPNO pert. Triples 
  Michael Roemelt        : Original ROCIS implementation                 
  Masaaki Saitow         : Open-shell DLPNO-CCSD energy and density      
  Barbara Sandhoefer     : DKH picture change effects                    
  Kantharuban Sivalingam : CASSCF convergence/infrastructure, NEVPT2 and variants, FIC-MRCI 
  Bernardo de Souza      : ESD, SOC TD-DFT                               
  Georgi L. Stoychev     : AutoAux, RI-MP2 NMR, DLPNO-MP2 response, X2C  
  Van Anh Tran           : RI-MP2 g-tensors                              
  Willem Van den Heuvel  : Paramagnetic NMR                              
  Zikuan Wang            : NOTCH, Electric field optimization            
  Frank Wennmohs         : Technical directorship and infrastructure     
  Hang Xu                : AUTO-CI-Response properties                   
                                                                         
[FACCTs GmbH]                                                            
  Markus Bursch, Miquel Garcia-Rates, Christoph Riplinger, Bernardo de Souza, Georgi L. Stoychev 
                                                                 
  APM, Basis sets (HGBS, AHGBS, def-TZVP (Ac-Lr), def2-XVPD (La-Lu)), CI-OPT, improved COSX, DLPNO-Multilevel,           
  DOCKER, DRACO, updates on ESD, GOAT, IRC, LR-CPCM, MBIS, meta-GGA TD-DFT gradient, ML-optimized integration grids, 
  MM, NACMEs, nearIR, NEB, NEB-TS, NL-DFT gradient (VV10), 2- and 3-layer-ONIOM, interface openCOSMO-RS, QMMM,   
  Crystal-QMMM, SF, symmetry and pop. for TD-DFT, r2SCAN hybrids, SOLVATOR                                   
                                                                         
[Other institutions]                                                     
  V. Asgeirsson          : NEB                                           
  Christoph Bannwarth    : sTDA-DFT, sTD-DFT, PBEh-3c, B97-3c, D3        
  Sebastian Ehlert       : rSCAN, r2SCAN, r2SCAN-3c, D4, dhf basis sets  
  Marvin Friede          : D4 for Fr, Ra, Ac-Lr                          
  Lars Goerigk           : TD-DFT with DH, B97 family of functionals     
  Stefan Grimme          : VdW corrections, initial TS optimization, DFT functionals, gCP, sTDA/sTD-DF 
  Waldemar Hujo          : DFT-NL                                        
  H. Jonsson             : NEB                                           
  Holger Kruse           : gCP                                           
  Marcel Mueller         : wB97X-3c, vDZP basis set                      
  Hagen Neugebauer       : wr2SCAN                                       
  Tobias Risthaus        : range-separated hybrid DFT                    
  Lukas Wittmann         : regularized MP2, r2SCAN double-hybrids, wr2SCAN        
                                                                         
We gratefully acknowledge several colleagues who have allowed us to      
interface, adapt or use parts of their codes:                            
  Ed Valeev, F. Pavosevic, A. Kumar             : LibInt (2-el integral package), F12 methods 
  Garnet Chan, S. Sharma, J. Yang, R. Olivares  : DMRG                   
  Ulf Ekstrom                                   : XCFun DFT Library      
  Mihaly Kallay                                 : mrcc  (arbitrary order and MRCC methods)
  Frank Weinhold                                : gennbo (NPA and NBO analysis)           
  Simon Mueller                                 : openCOSMO-RS                            
  Christopher J. Cramer and Donald G. Truhlar   : smd solvation model                     
  S Lehtola, MJT Oliveira, MAL Marques          : LibXC Library                           
  Liviu Ungur et al                             : ANISO software                          


 Your calculation uses the libint2 library for the computation of 2-el integrals
 For citations please refer to: http://libint.valeyev.net

 Your ORCA version has been built with support for libXC version: 6.2.2
 For citations please refer to: https://libxc.gitlab.io

 This ORCA versions uses:
   CBLAS   interface :  Fast vector & matrix operations
   LAPACKE interface :  Fast linear algebra routines
   SCALAPACK package :  Parallel linear algebra routines
   Shared memory     :  Shared parallel matrices
   BLAS/LAPACK       :  OpenBLAS 0.3.27  USE64BITINT DYNAMIC_ARCH NO_AFFINITY SkylakeX SINGLE_THREADED
        Core in use  :  SkylakeX
   Copyright (c) 2011-2014, The OpenBLAS Project


NOTE: MaxCore=5000 MB was set to SCF,MP2,MDCI,CIPSI,MRCI and CIS
      => If you want to overwrite this, your respective input block should be placed after the MaxCore statement
Warning: RI is on but no J-basis has been assigned. Assigning Def2/J (nothing to worry about!)
================================================================================

----- Orbital basis set information -----
Your calculation utilizes the basis: def2-TZVP
   F. Weigend and R. Ahlrichs, Phys. Chem. Chem. Phys. 7, 3297 (2005).

----- AuxJ basis set information -----
Your calculation utilizes the auxiliary basis: def2/J
   F. Weigend, Phys. Chem. Chem. Phys. 8, 1057 (2006).

================================================================================
                                        WARNINGS
                       Please study these warnings very carefully!
================================================================================


WARNING: Geometry Optimization
  ===> : Switching off AutoStart
         For restart on a previous wavefunction, please use MOREAD

================================================================================
                                       INPUT FILE
================================================================================
NAME = honokiol2-opt_EC2.inp
|  1> ! OPT B3LYP def2-TZVP TightSCF
|  2> 
|  3> %maxcore 5000
|  4> 
|  5> %pal
|  6> nprocs 25
|  7> end
|  8> 
|  9> * xyz 0 1
| 10> O        1.4378139690      1.3195661235      2.4846843332                 
| 11> O       -3.6234784392     -2.4172476261      2.1711296358                 
| 12> C        1.2316508747     -0.0452440627      0.4817526856                 
| 13> C       -0.0501295459     -0.6510174407      0.9272245169                 
| 14> C       -2.4024759936     -1.1701844750      0.4805485812                 
| 15> C       -1.1861958465     -0.5988938885      0.1143732559                 
| 16> C        2.9867134943      0.1617234126     -1.2121583974                 
| 17> C        1.7864084777     -0.3790163602     -0.7557909566                 
| 18> C        1.9136446812      0.8917012095      1.2783982648                 
| 19> C       -0.1652800460     -1.3115486672      2.1572460316                 
| 20> C       -2.4771908492     -1.8350995348      1.7152730738                 
| 21> C       -3.6188231316     -1.0376314015     -0.4145222949                 
| 22> C        3.5576306637     -0.2451035689     -2.5577859631                 
| 23> C        3.6421187806      1.0766477396     -0.3896775700                 
| 24> C       -1.3613188329     -1.8963360126      2.5450015093                 
| 25> C        3.1126486007      1.4427193920      0.8396092968                 
| 26> C       -4.2044651309     -2.3528284400     -0.8606614678                 
| 27> C        2.6825503367      0.1391758189     -3.7190133238                 
| 28> C       -5.4758298944     -2.7129338946     -0.7095144037                 
| 29> C        2.1941432179     -0.7034841813     -4.6214319285                 
| 30> H       -1.1246082271     -0.0761530641     -0.8334873778                 
| 31> H        1.2640322567     -1.1006001298     -1.3739214573                 
| 32> H        0.7008179833     -1.4037257393      2.8019448401                 
| 33> H       -4.3961225376     -0.4520252456      0.0890069602                 
| 34> H       -3.3251032997     -0.4664904020     -1.3000436612                 
| 35> H        3.7333084446     -1.3251045492     -2.5829711451                 
| 36> H        4.5359707185      0.2324602654     -2.6760593020                 
| 37> H        4.5807689334      1.5130785794     -0.7119648283                 
| 38> H       -1.4451310488     -2.4239858047      3.4863615777                 
| 39> H        3.6125071571      2.1655921009      1.4715091226                 
| 40> H       -3.5103740987     -3.0409853560     -1.3366432547                 
| 41> H        2.4439570110      1.1973323924     -3.7963031512                 
| 42> H        0.5660773120      0.9317181704      2.6407788884                 
| 43> H       -4.2348821290     -2.5726546693      1.4367226504                 
| 44> H       -5.8390748728     -3.6710786874     -1.0589561646                 
| 45> H       -6.2028307461     -2.0540384265     -0.2452358997                 
| 46> H        1.5717158363     -0.3620514741     -5.4393010668                 
| 47> H        2.4041958508     -1.7670453117     -4.5782351147                 
| 48> H       -5.3461979440      3.0610364290      3.9875079348                 
| 49> H       -5.1553402843      1.5606800562      5.8701345383                 
| 50> C       -4.6390312112      2.2428029131      3.8381401488                 
| 51> O       -3.1654190131      2.0302530943      5.6175686733                 
| 52> C       -2.5525652800      2.7343625659      4.6303047502                 
| 53> C       -4.3765149663      1.4471538191      5.1186629835                 
| 54> O       -3.3517876291      2.7960913477      3.5333350495                 
| 55> O       -1.4747879028      3.2246147583      4.7140768391                 
| 56> H       -4.9628150194      1.6275942117      3.0010221707                 
| 57> H       -4.2025698276      0.3862860181      4.9277661071                 
| 58> O       -6.2123196571      5.0889576053     -0.4216795005                 
| 59> C       -5.0783266954      5.2434261546     -0.1067656233                 
| 60> O       -4.0463531396      4.4543445661     -0.5046567603                 
| 61> O       -4.6246282682      6.2350836830      0.7036756291                 
| 62> C       -2.8511015713      4.8289252994      0.1931904526                 
| 63> C       -3.1913215937      6.2187439243      0.7358473390                 
| 64> H       -2.6644785195      4.1010722339      0.9852164570                 
| 65> H       -2.8167650043      7.0231307532      0.0995596518                 
| 66> H       -2.0201107587      4.8263348039     -0.5093061301                 
| 67> H       -2.8621429198      6.3795539825      1.7604424667
| 68> *
| 69> 
| 70>                          ****END OF INPUT****
================================================================================

                       *****************************
                       * Geometry Optimization Run *
                       *****************************

Geometry optimization settings:
Update method            Update   .... BFGS
Choice of coordinates    CoordSys .... (2022) Redundant Internals
Initial Hessian          InHess   .... Almloef's Model
Max. no of cycles        MaxIter  .... 174

Convergence Tolerances:
Energy Change            TolE     ....  5.0000e-06 Eh
Max. Gradient            TolMAXG  ....  3.0000e-04 Eh/bohr
RMS Gradient             TolRMSG  ....  1.0000e-04 Eh/bohr
Max. Displacement        TolMAXD  ....  4.0000e-03 bohr
RMS Displacement         TolRMSD  ....  2.0000e-03 bohr
Strict Convergence                .... False

------------------------------------------------------------------------------
                        ORCA OPTIMIZATION COORDINATE SETUP
------------------------------------------------------------------------------

The optimization will be done in redundant internal coordinates (2022)
Making redundant internal coordinates   ...  (2022 redundants) done
Evaluating the initial hessian          ...  (Almloef) done
Evaluating the coordinates              ...  done
Calculating the B-matrix                .... done
Calculating the G-matrix                .... done
Diagonalizing the G-matrix              .... done
Small eigenvalue found = 2.199e-03
Small eigenvalue found = 3.609e-03
Small eigenvalue found = 3.992e-03
Small eigenvalue found = 7.669e-03
Small eigenvalue found = 1.203e-02
Small eigenvalue found = 1.511e-02
Small eigenvalue found = 1.580e-02
Small eigenvalue found = 1.691e-02
Small eigenvalue found = 2.552e-02
Small eigenvalue found = 2.835e-02
The first mode is                       ....  148
The number of degrees of freedom        ....  168

    -----------------------------------------------------------------
                    Redundant Internal Coordinates


    -----------------------------------------------------------------
         Definition                    Initial Value    Approx d2E/dq
    -----------------------------------------------------------------
      1. B(C   3,C   2)                  1.4861         0.439020   
      2. B(C   5,C   3)                  1.3979         0.606951   
      3. B(C   5,C   4)                  1.3928         0.618482   
      4. B(C   7,C   6)                  1.3933         0.617172   
      5. B(C   7,C   2)                  1.3967         0.609683   
      6. B(C   8,C   2)                  1.4063         0.588523   
      7. B(C   8,O   0)                  1.3655         0.612283   
      8. B(C   9,C   3)                  1.4009         0.600278   
      9. B(C  10,C   4)                  1.4044         0.592681   
     10. B(C  10,O   1)                  1.3641         0.615533   
     11. B(C  11,C   4)                  1.5160         0.393307   
     12. B(C  12,C   6)                  1.5173         0.391432   
     13. B(C  13,C   6)                  1.3940         0.615779   
     14. B(C  14,C  10)                  1.3919         0.620464   
     15. B(C  14,C   9)                  1.3867         0.632499   
     16. B(C  15,C  13)                  1.3876         0.630280   
     17. B(C  15,C   8)                  1.3906         0.623422   
     18. B(C  16,C  11)                  1.5072         0.406159   
     19. B(C  17,C  12)                  1.5040         0.411082   
     20. B(C  18,C  16)                  1.3300         0.778881   
     21. B(C  19,C  17)                  1.3278         0.785273   
     22. B(H  20,C   5)                  1.0842         0.367854   
     23. B(H  21,C   7)                  1.0843         0.367758   
     24. B(H  22,C   9)                  1.0836         0.368623   
     25. B(H  23,C  11)                  1.0958         0.352572   
     26. B(H  24,C  11)                  1.0939         0.354975   
     27. B(H  25,C  12)                  1.0945         0.354215   
     28. B(H  26,C  12)                  1.0951         0.353439   
     29. B(H  27,C  13)                  1.0842         0.367908   
     30. B(H  28,C  14)                  1.0824         0.370291   
     31. B(H  29,C  15)                  1.0825         0.370226   
     32. B(H  30,C  16)                  1.0871         0.363899   
     33. B(H  31,C  17)                  1.0875         0.363460   
     34. B(H  32,O   0)                  0.9668         0.507115   
     35. B(H  33,O   1)                  0.9682         0.504615   
     36. B(H  34,C  18)                  1.0826         0.369976   
     37. B(H  35,C  18)                  1.0855         0.366153   
     38. B(H  36,C  19)                  1.0830         0.369472   
     39. B(H  37,C  19)                  1.0850         0.366822   
     40. B(C  40,H  38)                  1.0917         0.357802   
     41. B(C  40,H  23)                  4.6235         0.000001   
     42. B(C  42,H  32)                  4.1151         0.000005   
     43. B(C  42,O  41)                  1.3587         0.627801   
     44. B(C  43,O  41)                  1.4338         0.476498   
     45. B(C  43,C  40)                  1.5303         0.373211   
     46. B(C  43,H  39)                  1.0882         0.362497   
     47. B(O  44,C  42)                  1.3586         0.627920   
     48. B(O  44,C  40)                  1.4339         0.476275   
     49. B(O  44,H  32)                  4.4297         0.000002   
     50. B(O  45,H  32)                  3.7042         0.000022   
     51. B(O  45,C  42)                  1.1870         1.179639   
     52. B(O  45,O   0)                  4.1331         0.000021   
     53. B(H  46,H  23)                  3.6230         0.000006   
     54. B(H  46,C  40)                  1.0882         0.362547   
     55. B(H  46,O  44)                  2.0601         0.009136   
     56. B(H  46,C   4)                  4.5536         0.000001   
     57. B(H  46,H  33)                  4.5408         0.000000   
     58. B(H  46,C  11)                  4.5360         0.000001   
     59. B(H  46,C  10)                  4.4522         0.000002   
     60. B(H  46,O   1)                  4.3409         0.000002   
     61. B(H  47,O   1)                  3.9742         0.000008   
     62. B(H  47,C  43)                  1.0919         0.357659   
     63. B(H  47,O  41)                  2.0626         0.009055   
     64. B(H  47,H  33)                  4.5764         0.000000   
     65. B(H  47,C  14)                  4.3544         0.000002   
     66. B(H  47,C  10)                  4.2698         0.000003   
     67. B(H  47,H  28)                  4.1927         0.000001   
     68. B(C  49,O  48)                  1.1870         1.179634   
     69. B(O  50,C  49)                  1.3587         0.627897   
     70. B(O  51,C  49)                  1.3587         0.627808   
     71. B(C  52,O  50)                  1.4339         0.476337   
     72. B(C  53,C  52)                  1.5303         0.373161   
     73. B(C  53,O  51)                  1.4338         0.476495   
     74. B(H  54,C  52)                  1.0917         0.357801   
     75. B(H  54,O  50)                  2.0625         0.009056   
     76. B(H  54,O  44)                  2.9442         0.000355   
     77. B(H  55,C  53)                  1.0919         0.357627   
     78. B(H  56,C  52)                  1.0881         0.362566   
     79. B(H  57,C  53)                  1.0881         0.362590   
     80. A(C   8,O   0,O  45)          150.0532         0.121686   
     81. A(C   8,O   0,H  32)          109.3372         0.367738   
     82. A(H  32,O   0,O  45)           57.4806         0.115996   
     83. A(C  10,O   1,H  33)          110.2241         0.367760   
     84. A(C   3,C   2,C   7)          120.7171         0.406924   
     85. A(C   3,C   2,C   8)          121.3373         0.404392   
     86. A(C   7,C   2,C   8)          117.9398         0.428728   
     87. A(C   5,C   3,C   9)          117.4734         0.429905   
     88. A(C   2,C   3,C   5)          120.7622         0.406601   
     89. A(C   2,C   3,C   9)          121.7561         0.405807   
     90. A(C  10,C   4,C  11)          121.1856         0.397131   
     91. A(C   5,C   4,C  10)          118.1526         0.430375   
     92. A(C   5,C   4,C  11)          120.6360         0.400117   
     93. A(C   3,C   5,C   4)          122.7889         0.432218   
     94. A(C   4,C   5,H  20)          118.5043         0.354038   
     95. A(C   3,C   5,H  20)          118.6968         0.352911   
     96. A(C   7,C   6,C  13)          117.8075         0.433177   
     97. A(C  12,C   6,C  13)          121.4899         0.399472   
     98. A(C   7,C   6,C  12)          120.7015         0.399631   
     99. A(C   2,C   7,H  21)          118.2172         0.353164   
    100. A(C   2,C   7,C   6)          122.6595         0.432402   
    101. A(C   6,C   7,H  21)          119.1160         0.353895   
    102. A(O   0,C   8,C   2)          122.6978         0.426257   
    103. A(O   0,C   8,C  15)          117.0676         0.430683   
    104. A(C   2,C   8,C  15)          120.2249         0.430446   
    105. A(C   3,C   9,C  14)          121.0152         0.433101   
    106. A(C  14,C   9,H  22)          119.1529         0.355511   
    107. A(C   3,C   9,H  22)          119.7875         0.352376   
    108. A(O   1,C  10,C   4)          122.7239         0.427200   
    109. A(O   1,C  10,C  14)          117.1105         0.430725   
    110. A(C   4,C  10,C  14)          120.1513         0.430622   
    111. A(H  23,C  11,H  24)          106.4650         0.289226   
    112. A(C   4,C  11,C  16)          114.2187         0.371870   
    113. A(C  16,C  11,H  24)          108.6815         0.328039   
    114. A(C   4,C  11,H  24)          107.9488         0.326305   
    115. A(C  16,C  11,H  23)          109.0704         0.327671   
    116. A(C   4,C  11,H  23)          110.1561         0.325941   
    117. A(C   6,C  12,C  17)          113.4104         0.372336   
    118. A(H  25,C  12,H  26)          106.5255         0.289240   
    119. A(C  17,C  12,H  26)          108.9658         0.328456   
    120. A(C   6,C  12,H  26)          108.3618         0.325816   
    121. A(C  17,C  12,H  25)          109.1327         0.328575   
    122. A(C   6,C  12,H  25)          110.2052         0.325934   
    123. A(C  15,C  13,H  27)          119.1768         0.355182   
    124. A(C   6,C  13,C  15)          121.0949         0.434818   
    125. A(C   6,C  13,H  27)          119.7283         0.353784   
    126. A(C  10,C  14,H  28)          118.5423         0.354626   
    127. A(C   9,C  14,H  28)          121.0350         0.355784   
    128. A(C   9,C  14,C  10)          120.4135         0.435687   
    129. A(C  13,C  15,H  29)          121.1401         0.355561   
    130. A(C   8,C  15,H  29)          118.5924         0.354902   
    131. A(C   8,C  15,C  13)          120.2647         0.435784   
    132. A(C  11,C  16,C  18)          125.0328         0.419180   
    133. A(C  18,C  16,H  30)          119.2537         0.367555   
    134. A(C  11,C  16,H  30)          115.7132         0.329386   
    135. A(C  12,C  17,C  19)          125.2143         0.420694   
    136. A(C  19,C  17,H  31)          119.2437         0.367994   
    137. A(C  12,C  17,H  31)          115.5412         0.329976   
    138. A(H  34,C  18,H  35)          116.7794         0.292847   
    139. A(C  16,C  18,H  35)          121.6339         0.367945   
    140. A(C  16,C  18,H  34)          121.5788         0.368601   
    141. A(H  36,C  19,H  37)          116.7680         0.292868   
    142. A(C  17,C  19,H  37)          121.5907         0.368577   
    143. A(C  17,C  19,H  36)          121.6404         0.369032   
    144. A(H  38,C  40,C  43)          112.7255         0.323926   
    145. A(O  44,C  40,H  46)          108.7686         0.335949   
    146. A(C  43,C  40,H  46)          113.6304         0.324628   
    147. A(H  38,C  40,H  46)          109.6482         0.290856   
    148. A(C  43,C  40,O  44)          102.9737         0.376407   
    149. A(H  38,C  40,O  44)          108.7466         0.335214   
    150. A(C  42,O  41,C  43)          109.8114         0.409684   
    151. A(O  44,C  42,O  45)          124.9135         0.482733   
    152. A(O  41,C  42,O  45)          124.9115         0.482716   
    153. A(O  41,C  42,O  44)          110.1750         0.430352   
    154. A(O  41,C  43,H  47)          108.7488         0.335218   
    155. A(C  40,C  43,H  47)          112.7191         0.323905   
    156. A(H  39,C  43,H  47)          109.6408         0.290832   
    157. A(C  40,C  43,O  41)          102.9813         0.376437   
    158. A(H  39,C  43,O  41)          108.7736         0.335968   
    159. A(H  39,C  43,C  40)          113.6309         0.324620   
    160. A(C  42,O  44,H  54)          125.5630         0.143154   
    161. A(C  40,O  44,H  54)          124.3730         0.139869   
    162. A(C  40,O  44,C  42)          109.8116         0.409664   
    163. A(O   0,O  45,C  42)          114.2940         0.126916   
    164. A(O  50,C  49,O  51)          110.1783         0.430350   
    165. A(O  48,C  49,O  51)          124.9066         0.482717   
    166. A(O  48,C  49,O  50)          124.9151         0.482730   
    167. A(C  49,O  50,C  52)          109.8103         0.409671   
    168. A(C  49,O  51,C  53)          109.8089         0.409684   
    169. A(H  54,C  52,H  56)          109.6472         0.290859   
    170. A(C  53,C  52,H  56)          113.6330         0.324624   
    171. A(O  50,C  52,H  56)          108.7700         0.335960   
    172. A(C  53,C  52,H  54)          112.7203         0.323919   
    173. A(O  50,C  52,H  54)          108.7482         0.335221   
    174. A(O  50,C  52,C  53)          102.9745         0.376407   
    175. A(H  55,C  53,H  57)          109.6378         0.290839   
    176. A(C  52,C  53,H  57)          113.6324         0.324627   
    177. A(O  51,C  53,H  57)          108.7759         0.335982   
    178. A(C  52,C  53,H  55)          112.7158         0.323893   
    179. A(O  51,C  53,H  55)          108.7512         0.335213   
    180. A(O  51,C  53,C  52)          102.9820         0.376428   
    181. A(O  44,H  54,C  52)          152.0639         0.130581   
    182. D(C   9,C   3,C   2,C   8)    -54.9479         0.013153   
    183. D(C   5,C   3,C   2,C   7)    -52.9808         0.013153   
    184. D(C   9,C   3,C   2,C   7)    125.9471         0.013153   
    185. D(C   5,C   3,C   2,C   8)    126.1242         0.013153   
    186. D(H  20,C   5,C   4,C  10)   -179.4355         0.028754   
    187. D(C   3,C   5,C   4,C  10)     -0.5955         0.028754   
    188. D(H  20,C   5,C   3,C   2)     -2.1826         0.025428   
    189. D(H  20,C   5,C   4,C  11)     -1.2601         0.028754   
    190. D(C   4,C   5,C   3,C   9)      0.0070         0.025428   
    191. D(C   4,C   5,C   3,C   2)    178.9795         0.025428   
    192. D(C   3,C   5,C   4,C  11)    177.5799         0.028754   
    193. D(H  20,C   5,C   3,C   9)    178.8449         0.025428   
    194. D(C   6,C   7,C   2,C   8)      1.0178         0.025671   
    195. D(H  21,C   7,C   6,C  12)      0.2566         0.026343   
    196. D(C   6,C   7,C   2,C   3)   -179.8475         0.025671   
    197. D(C   2,C   7,C   6,C  13)     -0.3620         0.026343   
    198. D(H  21,C   7,C   6,C  13)   -179.3662         0.026343   
    199. D(C   2,C   7,C   6,C  12)    179.2609         0.026343   
    200. D(H  21,C   7,C   2,C   8)   -179.9695         0.025671   
    201. D(H  21,C   7,C   2,C   3)     -0.8348         0.025671   
    202. D(C  15,C   8,C   2,C   7)     -0.9595         0.023830   
    203. D(O   0,C   8,C   2,C   7)    177.8780         0.023830   
    204. D(C  15,C   8,C   2,C   3)    179.9114         0.023830   
    205. D(C  15,C   8,O   0,H  32)    174.7142         0.030298   
    206. D(O   0,C   8,C   2,C   3)     -1.2511         0.023830   
    207. D(C  15,C   8,O   0,O  45)    116.8659         0.030298   
    208. D(C   2,C   8,O   0,O  45)    -62.0060         0.030298   
    209. D(C   2,C   8,O   0,H  32)     -4.1578         0.030298   
    210. D(H  22,C   9,C   3,C   2)     -1.0404         0.024842   
    211. D(C  14,C   9,C   3,C   5)      0.3641         0.024842   
    212. D(C  14,C   9,C   3,C   2)   -178.5975         0.024842   
    213. D(H  22,C   9,C   3,C   5)    177.9212         0.024842   
    214. D(C  14,C  10,C   4,C  11)   -177.3400         0.030083   
    215. D(C  14,C  10,C   4,C   5)      0.8249         0.030083   
    216. D(O   1,C  10,C   4,C  11)      1.2456         0.030083   
    217. D(O   1,C  10,C   4,C   5)    179.4105         0.030083   
    218. D(C  14,C  10,O   1,H  33)   -161.8907         0.038223   
    219. D(C   4,C  10,O   1,H  33)     19.4833         0.038223   
    220. D(H  24,C  11,C   4,C  10)    178.6613         0.013039   
    221. D(H  24,C  11,C   4,C   5)      0.5418         0.013039   
    222. D(H  23,C  11,C   4,C  10)     62.7955         0.013039   
    223. D(H  23,C  11,C   4,C   5)   -115.3241         0.013039   
    224. D(C  16,C  11,C   4,C  10)    -60.3483         0.013039   
    225. D(C  16,C  11,C   4,C   5)    121.5322         0.013039   
    226. D(H  26,C  12,C   6,C   7)   -175.3752         0.011395   
    227. D(H  25,C  12,C   6,C  13)    120.4336         0.011395   
    228. D(H  25,C  12,C   6,C   7)    -59.1751         0.011395   
    229. D(C  17,C  12,C   6,C  13)   -116.8883         0.011395   
    230. D(C  17,C  12,C   6,C   7)     63.5030         0.011395   
    231. D(H  27,C  13,C   6,C  12)      0.0870         0.026217   
    232. D(H  27,C  13,C   6,C   7)    179.7067         0.026217   
    233. D(C  15,C  13,C   6,C  12)   -179.9880         0.026217   
    234. D(C  15,C  13,C   6,C   7)     -0.3683         0.026217   
    235. D(H  28,C  14,C  10,C   4)   -179.3924         0.033179   
    236. D(H  28,C  14,C  10,O   1)      1.9444         0.033179   
    237. D(C   9,C  14,C  10,C   4)     -0.4797         0.033179   
    238. D(C   9,C  14,C  10,O   1)   -179.1430         0.033179   
    239. D(H  28,C  14,C   9,H  22)      1.1818         0.030163   
    240. D(H  28,C  14,C   9,C   3)    178.7542         0.030163   
    241. D(C  10,C  14,C   9,C   3)     -0.1310         0.030163   
    242. D(C  10,C  14,C   9,H  22)   -177.7034         0.030163   
    243. D(C  13,C  15,C   8,C   2)      0.2750         0.026912   
    244. D(C  13,C  15,C   8,O   0)   -178.6264         0.026912   
    245. D(H  29,C  15,C  13,H  27)      0.9631         0.027545   
    246. D(H  29,C  15,C  13,C   6)   -178.9623         0.027545   
    247. D(C   8,C  15,C  13,H  27)   -179.6651         0.027545   
    248. D(C   8,C  15,C  13,C   6)      0.4095         0.027545   
    249. D(H  29,C  15,C   8,C   2)    179.6626         0.026912   
    250. D(H  29,C  15,C   8,O   0)      0.7612         0.026912   
    251. D(H  30,C  16,C  11,H  24)     66.9389         0.013075   
    252. D(H  30,C  16,C  11,H  23)   -177.3740         0.013075   
    253. D(H  30,C  16,C  11,C   4)    -53.6444         0.013075   
    254. D(C  18,C  16,C  11,H  24)   -113.2472         0.013075   
    255. D(C  18,C  16,C  11,H  23)      2.4399         0.013075   
    256. D(C  18,C  16,C  11,C   4)    126.1695         0.013075   
    257. D(H  31,C  17,C  12,H  25)   -179.7943         0.012513   
    258. D(H  31,C  17,C  12,C   6)     56.9368         0.012513   
    259. D(C  19,C  17,C  12,H  26)    116.4855         0.012513   
    260. D(C  19,C  17,C  12,H  25)      0.5361         0.012513   
    261. D(C  19,C  17,C  12,C   6)   -122.7329         0.012513   
    262. D(H  35,C  18,C  16,H  30)   -179.6270         0.043592   
    263. D(H  35,C  18,C  16,C  11)      0.5653         0.043592   
    264. D(H  34,C  18,C  16,H  30)     -0.6802         0.043592   
    265. D(H  34,C  18,C  16,C  11)    179.5120         0.043592   
    266. D(H  37,C  19,C  17,H  31)   -179.7245         0.044385   
    267. D(H  37,C  19,C  17,C  12)     -0.0661         0.044385   
    268. D(H  36,C  19,C  17,H  31)      0.6338         0.044385   
    269. D(H  36,C  19,C  17,C  12)   -179.7078         0.044385   
    270. D(O  45,C  42,O  41,C  43)   -172.8684         0.034778   
    271. D(O  44,C  42,O  41,C  43)      7.1299         0.034778   
    272. D(H  47,C  43,O  41,C  42)    102.6883         0.019413   
    273. D(C  40,C  43,O  41,C  42)    -17.1002         0.019413   
    274. D(H  39,C  43,O  41,C  42)   -137.9527         0.019413   
    275. D(H  47,C  43,C  40,H  38)    146.0935         0.011791   
    276. D(O  41,C  43,C  40,H  46)    137.5696         0.011791   
    277. D(O  41,C  43,C  40,O  44)     20.1056         0.011791   
    278. D(O  41,C  43,C  40,H  38)    -96.8985         0.011791   
    279. D(H  39,C  43,C  40,H  46)   -104.9554         0.011791   
    280. D(H  39,C  43,C  40,O  44)    137.5805         0.011791   
    281. D(H  39,C  43,C  40,H  38)     20.5765         0.011791   
    282. D(H  54,O  44,C  42,O  45)      1.5491         0.039919   
    283. D(H  54,O  44,C  42,O  41)   -178.4493         0.039919   
    284. D(C  40,O  44,C  42,O  45)   -172.8668         0.039919   
    285. D(C  40,O  44,C  42,O  41)      7.1348         0.039919   
    286. D(H  54,O  44,C  40,H  46)     47.5561         0.023428   
    287. D(H  54,O  44,C  40,C  43)    168.4015         0.023428   
    288. D(H  54,O  44,C  40,H  38)    -71.8077         0.023428   
    289. D(C  42,O  44,C  40,H  46)   -137.9472         0.023428   
    290. D(C  42,O  44,C  40,C  43)    -17.1018         0.023428   
    291. D(C  42,O  44,C  40,H  38)    102.6890         0.023428   
    292. D(O   0,O  45,C  42,O  44)    -71.6337         0.145521   
    293. D(O   0,O  45,C  42,O  41)    108.3644         0.145521   
    294. D(C  42,O  45,O   0,H  32)    -11.9739         0.001500   
    295. D(C  42,O  45,O   0,C   8)     59.3648         0.001500   
    296. D(C  52,O  50,C  49,O  51)      7.1351         0.031989   
    297. D(C  52,O  50,C  49,O  48)   -172.8712         0.031989   
    298. D(C  53,O  51,C  49,O  50)      7.1276         0.028971   
    299. D(C  53,O  51,C  49,O  48)   -172.8661         0.028971   
    300. D(H  56,C  52,O  50,C  49)   -137.9494         0.019399   
    301. D(H  54,C  52,O  50,C  49)    102.6863         0.019399   
    302. D(C  53,C  52,O  50,C  49)    -17.0998         0.019399   
    303. D(O  51,C  53,C  52,H  56)    137.5706         0.011120   
    304. D(O  51,C  53,C  52,H  54)    -96.9010         0.011120   
    305. D(O  51,C  53,C  52,O  50)     20.1030         0.011120   
    306. D(H  57,C  53,O  51,C  49)   -137.9522         0.017906   
    307. D(H  55,C  53,O  51,C  49)    102.6896         0.017906   
    308. D(C  52,C  53,O  51,C  49)    -17.0965         0.017906   
    309. D(H  55,C  53,C  52,H  56)     20.5609         0.011120   
    310. D(H  55,C  53,C  52,H  54)    146.0893         0.011120   
    311. D(H  55,C  53,C  52,O  50)    -96.9067         0.011120   
    312. D(O  44,H  54,C  52,H  56)    174.1552         0.130437   
    313. D(O  44,H  54,C  52,C  53)     46.4964         0.130437   
    314. D(O  44,H  54,C  52,O  50)    -67.0298         0.130437   
    315. D(C  52,H  54,O  44,C  42)   -122.1443         0.001500   
    316. D(C  52,H  54,O  44,C  40)     51.4877         0.001500   
    -----------------------------------------------------------------

Number of atoms                         .... 58
Number of degrees of freedom            .... 316


         *************************************************************
         *                GEOMETRY OPTIMIZATION CYCLE   1            *
         *************************************************************
---------------------------------
CARTESIAN COORDINATES (ANGSTROEM)
---------------------------------
  O      1.437814    1.319566    2.484684
  O     -3.623478   -2.417248    2.171130
  C      1.231651   -0.045244    0.481753
  C     -0.050130   -0.651017    0.927225
  C     -2.402476   -1.170184    0.480549
  C     -1.186196   -0.598894    0.114373
  C      2.986713    0.161723   -1.212158
  C      1.786408   -0.379016   -0.755791
  C      1.913645    0.891701    1.278398
  C     -0.165280   -1.311549    2.157246
  C     -2.477191   -1.835100    1.715273
  C     -3.618823   -1.037631   -0.414522
  C      3.557631   -0.245104   -2.557786
  C      3.642119    1.076648   -0.389678
  C     -1.361319   -1.896336    2.545002
  C      3.112649    1.442719    0.839609
  C     -4.204465   -2.352828   -0.860661
  C      2.682550    0.139176   -3.719013
  C     -5.475830   -2.712934   -0.709514
  C      2.194143   -0.703484   -4.621432
  H     -1.124608   -0.076153   -0.833487
  H      1.264032   -1.100600   -1.373921
  H      0.700818   -1.403726    2.801945
  H     -4.396123   -0.452025    0.089007
  H     -3.325103   -0.466490   -1.300044
  H      3.733308   -1.325105   -2.582971
  H      4.535971    0.232460   -2.676059
  H      4.580769    1.513079   -0.711965
  H     -1.445131   -2.423986    3.486362
  H      3.612507    2.165592    1.471509
  H     -3.510374   -3.040985   -1.336643
  H      2.443957    1.197332   -3.796303
  H      0.566077    0.931718    2.640779
  H     -4.234882   -2.572655    1.436723
  H     -5.839075   -3.671079   -1.058956
  H     -6.202831   -2.054038   -0.245236
  H      1.571716   -0.362051   -5.439301
  H      2.404196   -1.767045   -4.578235
  H     -5.346198    3.061036    3.987508
  H     -5.155340    1.560680    5.870135
  C     -4.639031    2.242803    3.838140
  O     -3.165419    2.030253    5.617569
  C     -2.552565    2.734363    4.630305
  C     -4.376515    1.447154    5.118663
  O     -3.351788    2.796091    3.533335
  O     -1.474788    3.224615    4.714077
  H     -4.962815    1.627594    3.001022
  H     -4.202570    0.386286    4.927766
  O     -6.212320    5.088958   -0.421680
  C     -5.078327    5.243426   -0.106766
  O     -4.046353    4.454345   -0.504657
  O     -4.624628    6.235084    0.703676
  C     -2.851102    4.828925    0.193190
  C     -3.191322    6.218744    0.735847
  H     -2.664479    4.101072    0.985216
  H     -2.816765    7.023131    0.099560
  H     -2.020111    4.826335   -0.509306
  H     -2.862143    6.379554    1.760442

----------------------------
CARTESIAN COORDINATES (A.U.)
----------------------------
  NO LB      ZA    FRAG     MASS         X           Y           Z
   0 O     8.0000    0    15.999    2.717075    2.493619    4.695373
   1 O     8.0000    0    15.999   -6.847382   -4.567936    4.102840
   2 C     6.0000    0    12.011    2.327483   -0.085499    0.910381
   3 C     6.0000    0    12.011   -0.094731   -1.230245    1.752200
   4 C     6.0000    0    12.011   -4.540022   -2.211328    0.908105
   5 C     6.0000    0    12.011   -2.241585   -1.131745    0.216134
   6 C     6.0000    0    12.011    5.644071    0.305613   -2.290647
   7 C     6.0000    0    12.011    3.375823   -0.716237   -1.428238
   8 C     6.0000    0    12.011    3.616264    1.685071    2.415823
   9 C     6.0000    0    12.011   -0.312334   -2.478468    4.076604
  10 C     6.0000    0    12.011   -4.681212   -3.467836    3.241396
  11 C     6.0000    0    12.011   -6.838585   -1.960839   -0.783334
  12 C     6.0000    0    12.011    6.722948   -0.463179   -4.833515
  13 C     6.0000    0    12.011    6.882607    2.034569   -0.736384
  14 C     6.0000    0    12.011   -2.572520   -3.583556    4.809356
  15 C     6.0000    0    12.011    5.882053    2.726345    1.586632
  16 C     6.0000    0    12.011   -7.945288   -4.446201   -1.626414
  17 C     6.0000    0    12.011    5.069285    0.263004   -7.027917
  18 C     6.0000    0    12.011  -10.347819   -5.126702   -1.340788
  19 C     6.0000    0    12.011    4.146330   -1.329392   -8.733241
  20 H     1.0000    0     1.008   -2.125202   -0.143908   -1.575063
  21 H     1.0000    0     1.008    2.388675   -2.079833   -2.596335
  22 H     1.0000    0     1.008    1.324354   -2.652657    5.294908
  23 H     1.0000    0     1.008   -8.307468   -0.854204    0.168199
  24 H     1.0000    0     1.008   -6.283535   -0.881539   -2.456726
  25 H     1.0000    0     1.008    7.054931   -2.504085   -4.881108
  26 H     1.0000    0     1.008    8.571742    0.439286   -5.057019
  27 H     1.0000    0     1.008    8.656399    2.859304   -1.345419
  28 H     1.0000    0     1.008   -2.730902   -4.580669    6.588269
  29 H     1.0000    0     1.008    6.826649    4.092376    2.780749
  30 H     1.0000    0     1.008   -6.633646   -5.746630   -2.525890
  31 H     1.0000    0     1.008    4.618409    2.262630   -7.173973
  32 H     1.0000    0     1.008    1.069731    1.760692    4.990349
  33 H     1.0000    0     1.008   -8.002767   -4.861613    2.715012
  34 H     1.0000    0     1.008  -11.034252   -6.937333   -2.001137
  35 H     1.0000    0     1.008  -11.721651   -3.881570   -0.463429
  36 H     1.0000    0     1.008    2.970112   -0.684178  -10.278789
  37 H     1.0000    0     1.008    4.543272   -3.339232   -8.651611
  38 H     1.0000    0     1.008  -10.102850    5.784521    7.535298
  39 H     1.0000    0     1.008   -9.742181    2.949258   11.092947
  40 C     6.0000    0    12.011   -8.766499    4.238283    7.253034
  41 O     8.0000    0    15.999   -5.981775    3.836622   10.615666
  42 C     6.0000    0    12.011   -4.823649    5.167196    8.750008
  43 C     6.0000    0    12.011   -8.270415    2.734724    9.672871
  44 O     8.0000    0    15.999   -6.333961    5.283847    6.677036
  45 O     8.0000    0    15.999   -2.786945    6.093639    8.908314
  46 H     1.0000    0     1.008   -9.378361    3.075707    5.671110
  47 H     1.0000    0     1.008   -7.941706    0.729975    9.312128
  48 O     8.0000    0    15.999  -11.739583    9.616736   -0.796859
  49 C     6.0000    0    12.011   -9.596647    9.908639   -0.201758
  50 O     8.0000    0    15.999   -7.646499    8.417491   -0.953663
  51 O     8.0000    0    15.999   -8.739281   11.782601    1.329754
  52 C     6.0000    0    12.011   -5.387801    9.125346    0.365077
  53 C     6.0000    0    12.011   -6.030724   11.751723    1.390550
  54 H     1.0000    0     1.008   -5.035135    7.749903    1.861789
  55 H     1.0000    0     1.008   -5.322914   13.271794    0.188140
  56 H     1.0000    0     1.008   -3.817456    9.120451   -0.962449
  57 H     1.0000    0     1.008   -5.408666   12.055610    3.326754

--------------------------------
INTERNAL COORDINATES (ANGSTROEM)
--------------------------------
 O      0   0   0     0.000000000000     0.00000000     0.00000000
 O      1   0   0     6.299109015469     0.00000000     0.00000000
 C      1   2   0     2.432477184017    63.77259403     0.00000000
 C      3   1   2     1.486057732596    93.15218861     0.58783938
 C      2   1   3     2.429830812457    47.65529728   324.53868438
 C      5   2   1     1.392765127116   146.33297007    25.01054443
 C      3   1   2     2.447940990232   117.48890922   179.81581447
 C      7   3   1     1.393342339766    28.70754247   181.76941718
 C      1   2   3     1.365506986478    92.87369626   359.19242297
 C      4   3   1     1.400897592788   121.75614782   304.46020474
 C      2   1   3     1.364066290292    24.25140510   355.73556696
 C      5   2   1     1.515988967855    93.00848149   207.01517430
 C      7   3   1     1.517289739227   149.40515424   180.52066115
 C      7   3   1     1.393957432954    89.10043641     1.44921383
 C     10   4   3     1.386664822369   121.01521184   181.40245049
 C     14   7   3     1.387621463866   121.09489359   359.45779932
 C     12   5   2     1.507235868409   114.21874749   300.24080384
 C     13   7   3     1.503956518596   113.41037361    64.20053130
 C     17  12   5     1.329996141080   125.03280575   126.16949595
 C     18  13   7     1.327771338650   125.21433088   237.26710827
 H      6   5   2     1.084200528166   118.50434585   181.06672281
 H      8   7   3     1.084271814958   119.11598599   180.99577981
 H     10   4   3     1.083632300487   119.78749096   358.95962538
 H     12   5   2     1.095751179391   110.15606776    63.38451788
 H     12   5   2     1.093901947679   107.94876114   179.25040547
 H     13   7   3     1.094485766716   110.20517349   301.52244796
 H     13   7   3     1.095082216709   108.36178346   185.32231912
 H     14   7   3     1.084160995490   119.72830541   179.53278114
 H     15  10   4     1.082403607263   121.03503233   178.75423043
 H     16  14   7     1.082451347417   121.14006662   181.03770271
 H     17  12   5     1.087143487990   115.71324800   306.35562402
 H     18  13   7     1.087472218739   115.54120908    56.93676244
 H      1   2   3     0.966807294162    17.36414623   161.06656350
 H      2   1   3     0.968152591889   129.82187571   314.76640006
 H     19  17  12     1.082634704119   121.57877540   179.51202468
 H     19  17  12     1.085462116120   121.63393016     0.56525635
 H     20  18  13     1.083006032437   121.64038358   180.29223249
 H     20  18  13     1.084965599182   121.59069546   359.93385622
 H     24  12   5     5.333156237759   144.52085108    20.10409430
 H     39  24  12     2.414907621395    98.42623205   285.06091320
 C     39  24  12     1.091742465060    44.83840851   327.58124894
 O     40  39  24     2.060115292853    80.74381511    84.83001668
 C     42  40  39     1.358694189296   130.00815822   352.42230551
 C     40  39  24     1.088194183104    65.35619930    44.62434410
 O     43  42  40     1.358642458507   110.17495284   341.19818950
 O     43  42  40     1.187000020992   124.91153268   161.19986722
 H     41  39  24     1.088156335270   109.64822186   345.64951057
 H     44  40  39     1.091851189446   109.64081812   223.58181039
 O     39  24  12     4.929864598424    69.41955488   113.85275596
 C     49  39  24     1.187000977237    69.41517270   270.92359833
 O     50  49  39     1.358652468471   124.91511474    96.79400080
 O     50  49  39     1.358691260025   124.90656050   276.78679974
 C     51  50  49     1.433850679058   109.81028686   187.12882820
 C     52  50  49     1.433760799366   109.80889028   187.13390267
 H     53  51  50     1.091743303193   108.74824382   102.68629647
 H     54  52  50     1.091875830877   108.75118421   102.68958868
 H     53  51  50     1.088142403364   108.77004093   222.05057799
 H     54  52  50     1.088123912923   108.77593416   222.04776890

---------------------------
INTERNAL COORDINATES (A.U.)
---------------------------
 O      0   0   0     0.000000000000     0.00000000     0.00000000
 O      1   0   0    11.903590926951     0.00000000     0.00000000
 C      1   2   0     4.596715704804    63.77259403     0.00000000
 C      3   1   2     2.808242133803    93.15218861     0.58783938
 C      2   1   3     4.591714787307    47.65529728   324.53868438
 C      5   2   1     2.631944659126   146.33297007    25.01054443
 C      3   1   2     4.625938063539   117.48890922   179.81581447
 C      7   3   1     2.633035432955    28.70754247   181.76941718
 C      1   2   3     2.580434238400    92.87369626   359.19242297
 C      4   3   1     2.647312792039   121.75614782   304.46020474
 C      2   1   3     2.577711717166    24.25140510   355.73556696
 C      5   2   1     2.864803971292    93.00848149   207.01517430
 C      7   3   1     2.867262072948   149.40515424   180.52066115
 C      7   3   1     2.634197790626    89.10043641     1.44921383
 C     10   4   3     2.620416753820   121.01521184   181.40245049
 C     14   7   3     2.622224544257   121.09489359   359.45779932
 C     12   5   2     2.848263010516   114.21874749   300.24080384
 C     13   7   3     2.842065937473   113.41037361    64.20053130
 C     17  12   5     2.513328465814   125.03280575   126.16949595
 C     18  13   7     2.509124198518   125.21433088   237.26710827
 H      6   5   2     2.048842072487   118.50434585   181.06672281
 H      8   7   3     2.048976785000   119.11598599   180.99577981
 H     10   4   3     2.047768277792   119.78749096   358.95962538
 H     12   5   2     2.070669639971   110.15606776    63.38451788
 H     12   5   2     2.067175098476   107.94876114   179.25040547
 H     13   7   3     2.068278356568   110.20517349   301.52244796
 H     13   7   3     2.069405483707   108.36178346   185.32231912
 H     14   7   3     2.048767366556   119.72830541   179.53278114
 H     15  10   4     2.045446384095   121.03503233   178.75423043
 H     16  14   7     2.045536599912   121.14006662   181.03770271
 H     17  12   5     2.054403460577   115.71324800   306.35562402
 H     18  13   7     2.055024671665   115.54120908    56.93676244
 H      1   2   3     1.827001010243    17.36414623   161.06656350
 H      2   1   3     1.829543254516   129.82187571   314.76640006
 H     19  17  12     2.045883093864   121.57877540   179.51202468
 H     19  17  12     2.051226128213   121.63393016     0.56525635
 H     20  18  13     2.046584802691   121.64038358   180.29223249
 H     20  18  13     2.050287847180   121.59069546   359.93385622
 H     24  12   5    10.078204718778   144.52085108    20.10409430
 H     39  24  12     4.563514043157    98.42623205   285.06091320
 C     39  24  12     2.063094267736    44.83840851   327.58124894
 O     40  39  24     3.893053707796    80.74381511    84.83001668
 C     42  40  39     2.567559917519   130.00815822   352.42230551
 C     40  39  24     2.056388986593    65.35619930    44.62434410
 O     43  42  40     2.567462160495   110.17495284   341.19818950
 O     43  42  40     2.243104960634   124.91153268   161.19986722
 H     41  39  24     2.056317464552   109.64822186   345.64951057
 H     44  40  39     2.063299727050   109.64081812   223.58181039
 O     39  24  12     9.316093968335    69.41955488   113.85275596
 C     49  39  24     2.243106767674    69.41517270   270.92359833
 O     50  49  39     2.567481076587   124.91511474    96.79400080
 O     50  49  39     2.567554381999   124.90656050   276.78679974
 C     51  50  49     2.709585100357   109.81028686   187.12882820
 C     52  50  49     2.709415252354   109.80889028   187.13390267
 H     53  51  50     2.063095851577   108.74824382   102.68629647
 H     54  52  50     2.063346292605   108.75118421   102.68958868
 H     53  51  50     2.056291137064   108.77004093   222.05057799
 H     54  52  50     2.056256195196   108.77593416   222.04776890

---------------------
BASIS SET INFORMATION
---------------------
There are 3 groups of distinct atoms

 Group   1 Type O   : 11s6p2d1f contracted to 5s3p2d1f pattern {62111/411/11/1}
 Group   2 Type C   : 11s6p2d1f contracted to 5s3p2d1f pattern {62111/411/11/1}
 Group   3 Type H   : 5s1p contracted to 3s1p pattern {311/1}

Atom   0O    basis set group =>   1
Atom   1O    basis set group =>   1
Atom   2C    basis set group =>   2
Atom   3C    basis set group =>   2
Atom   4C    basis set group =>   2
Atom   5C    basis set group =>   2
Atom   6C    basis set group =>   2
Atom   7C    basis set group =>   2
Atom   8C    basis set group =>   2
Atom   9C    basis set group =>   2
Atom  10C    basis set group =>   2
Atom  11C    basis set group =>   2
Atom  12C    basis set group =>   2
Atom  13C    basis set group =>   2
Atom  14C    basis set group =>   2
Atom  15C    basis set group =>   2
Atom  16C    basis set group =>   2
Atom  17C    basis set group =>   2
Atom  18C    basis set group =>   2
Atom  19C    basis set group =>   2
Atom  20H    basis set group =>   3
Atom  21H    basis set group =>   3
Atom  22H    basis set group =>   3
Atom  23H    basis set group =>   3
Atom  24H    basis set group =>   3
Atom  25H    basis set group =>   3
Atom  26H    basis set group =>   3
Atom  27H    basis set group =>   3
Atom  28H    basis set group =>   3
Atom  29H    basis set group =>   3
Atom  30H    basis set group =>   3
Atom  31H    basis set group =>   3
Atom  32H    basis set group =>   3
Atom  33H    basis set group =>   3
Atom  34H    basis set group =>   3
Atom  35H    basis set group =>   3
Atom  36H    basis set group =>   3
Atom  37H    basis set group =>   3
Atom  38H    basis set group =>   3
Atom  39H    basis set group =>   3
Atom  40C    basis set group =>   2
Atom  41O    basis set group =>   1
Atom  42C    basis set group =>   2
Atom  43C    basis set group =>   2
Atom  44O    basis set group =>   1
Atom  45O    basis set group =>   1
Atom  46H    basis set group =>   3
Atom  47H    basis set group =>   3
Atom  48O    basis set group =>   1
Atom  49C    basis set group =>   2
Atom  50O    basis set group =>   1
Atom  51O    basis set group =>   1
Atom  52C    basis set group =>   2
Atom  53C    basis set group =>   2
Atom  54H    basis set group =>   3
Atom  55H    basis set group =>   3
Atom  56H    basis set group =>   3
Atom  57H    basis set group =>   3
---------------------------------
AUXILIARY/J BASIS SET INFORMATION
---------------------------------
There are 3 groups of distinct atoms

 Group   1 Type O   : 12s5p4d2f1g contracted to 6s4p3d1f1g pattern {711111/2111/211/2/1}
 Group   2 Type C   : 12s5p4d2f1g contracted to 6s4p3d1f1g pattern {711111/2111/211/2/1}
 Group   3 Type H   : 5s2p1d contracted to 3s1p1d pattern {311/2/1}

Atom   0O    basis set group =>   1
Atom   1O    basis set group =>   1
Atom   2C    basis set group =>   2
Atom   3C    basis set group =>   2
Atom   4C    basis set group =>   2
Atom   5C    basis set group =>   2
Atom   6C    basis set group =>   2
Atom   7C    basis set group =>   2
Atom   8C    basis set group =>   2
Atom   9C    basis set group =>   2
Atom  10C    basis set group =>   2
Atom  11C    basis set group =>   2
Atom  12C    basis set group =>   2
Atom  13C    basis set group =>   2
Atom  14C    basis set group =>   2
Atom  15C    basis set group =>   2
Atom  16C    basis set group =>   2
Atom  17C    basis set group =>   2
Atom  18C    basis set group =>   2
Atom  19C    basis set group =>   2
Atom  20H    basis set group =>   3
Atom  21H    basis set group =>   3
Atom  22H    basis set group =>   3
Atom  23H    basis set group =>   3
Atom  24H    basis set group =>   3
Atom  25H    basis set group =>   3
Atom  26H    basis set group =>   3
Atom  27H    basis set group =>   3
Atom  28H    basis set group =>   3
Atom  29H    basis set group =>   3
Atom  30H    basis set group =>   3
Atom  31H    basis set group =>   3
Atom  32H    basis set group =>   3
Atom  33H    basis set group =>   3
Atom  34H    basis set group =>   3
Atom  35H    basis set group =>   3
Atom  36H    basis set group =>   3
Atom  37H    basis set group =>   3
Atom  38H    basis set group =>   3
Atom  39H    basis set group =>   3
Atom  40C    basis set group =>   2
Atom  41O    basis set group =>   1
Atom  42C    basis set group =>   2
Atom  43C    basis set group =>   2
Atom  44O    basis set group =>   1
Atom  45O    basis set group =>   1
Atom  46H    basis set group =>   3
Atom  47H    basis set group =>   3
Atom  48O    basis set group =>   1
Atom  49C    basis set group =>   2
Atom  50O    basis set group =>   1
Atom  51O    basis set group =>   1
Atom  52C    basis set group =>   2
Atom  53C    basis set group =>   2
Atom  54H    basis set group =>   3
Atom  55H    basis set group =>   3
Atom  56H    basis set group =>   3
Atom  57H    basis set group =>   3


           ************************************************************
           *        Program running with 25 parallel MPI-processes    *
           *              working on a common directory               *
           ************************************************************
------------------------------------------------------------------------------
                             ORCA STARTUP CALCULATIONS
                           -- RI-GTO INTEGRALS CHOSEN --
------------------------------------------------------------------------------
------------------------------------------------------------------------------
                   ___                                                        
                  /   \      - P O W E R E D   B Y -                         
                 /     \                                                     
                 |  |  |   _    _      __       _____    __    __             
                 |  |  |  | |  | |    /  \     |  _  \  |  |  /  |          
                  \  \/   | |  | |   /    \    | | | |  |  | /  /          
                 / \  \   | |__| |  /  /\  \   | |_| |  |  |/  /          
                |  |  |   |  __  | /  /__\  \  |    /   |      \           
                |  |  |   | |  | | |   __   |  |    \   |  |\   \          
                \     /   | |  | | |  |  |  |  | |\  \  |  | \   \       
                 \___/    |_|  |_| |__|  |__|  |_| \__\ |__|  \__/        
                                                                              
                      - O R C A' S   B I G   F R I E N D -                    
                                      &                                       
                       - I N T E G R A L  F E E D E R -                       
                                                                              
 v1 FN, 2020, v2 2021, v3 2022-2024                                           
------------------------------------------------------------------------------


----------------------
SHARK INTEGRAL PACKAGE
----------------------

Number of atoms                             ...     58
Number of basis functions                   ...   1148
Number of shells                            ...    456
Maximum angular momentum                    ...      3
Integral batch strategy                     ... SHARK/LIBINT Hybrid
RI-J (if used) integral strategy            ... SPLIT-RIJ (Revised 2003 algorithm where possible)
Printlevel                                  ...      1
Contraction scheme used                     ... SEGMENTED contraction
Prescreening option                         ... SCHWARTZ
   Thresh                                   ... 2.500e-11
   Tcut                                     ... 2.500e-12
   Tpresel                                  ... 2.500e-12 
Coulomb Range Separation                    ... NOT USED
Exchange Range Separation                   ... NOT USED
Multipole approximations                    ... NOT USED
Finite Nucleus Model                        ... NOT USED
CABS basis                                  ... NOT available
Auxiliary Coulomb fitting basis             ... AVAILABLE
   # of basis functions in Aux-J            ...   1854
   # of shells in Aux-J                     ...    610
   Maximum angular momentum in Aux-J        ...      4
Auxiliary J/K fitting basis                 ... NOT available
Auxiliary Correlation fitting basis         ... NOT available
Auxiliary 'external' fitting basis          ... NOT available

Checking pre-screening integrals            ... done (  0.0 sec) Dimension = 456
Check shell pair data                       ... done (  0.0 sec)
Shell pair information
Shell pair cut-off parameter TPreSel        ...   2.5e-12
Total number of shell pairs                 ...    104196
Shell pairs after pre-screening             ...     55066
Total number of primitive shell pairs       ...    317988
Primitive shell pairs kept                  ...    106040
          la=0 lb=0:  14990 shell pairs
          la=1 lb=0:  16609 shell pairs
          la=1 lb=1:   4653 shell pairs
          la=2 lb=0:   7406 shell pairs
          la=2 lb=1:   4193 shell pairs
          la=2 lb=2:    919 shell pairs
          la=3 lb=0:   3409 shell pairs
          la=3 lb=1:   1933 shell pairs
          la=3 lb=2:    776 shell pairs
          la=3 lb=3:    178 shell pairs

Calculating one electron integrals          ... done (  0.1 sec)
Calculating RI/J V-Matrix + Cholesky decomp.... done (  0.2 sec)
Calculating Nuclear repulsion               ... done (  0.0 sec) ENN=   3044.609954246986 Eh

Diagonalization of the overlap matrix:
Smallest eigenvalue                        ... 6.422e-06
Time for diagonalization                   ...    0.228 sec
Threshold for overlap eigenvalues          ... 1.000e-07
Number of eigenvalues below threshold      ... 0
Time for construction of square roots      ...    0.108 sec
Total time needed                          ...    0.348 sec

-------------------
DFT GRID GENERATION
-------------------

General Integration Accuracy     IntAcc      ... 4.388
Radial Grid Type                 RadialGrid  ... OptM3 with GC (2021)
Angular Grid (max. ang.)         AngularGrid ... 4 (Lebedev-302)
Angular grid pruning method      GridPruning ... 4 (adaptive)
Weight generation scheme         WeightScheme... mBecke (2022)
Basis function cutoff            BFCut       ... 1.0000e-11
Integration weight cutoff        WCut        ... 1.0000e-14
Partially contracted basis set               ... off
Rotationally invariant grid construction     ... off
Angular grids for H and He will be reduced by one unit

Total number of grid points                  ...   274994
Total number of batches                      ...     4326
Average number of points per batch           ...       63
Average number of grid points per atom       ...     4741

--------------------
COSX GRID GENERATION
--------------------

GRIDX 1
-------
General Integration Accuracy     IntAcc      ... 3.816
Radial Grid Type                 RadialGrid  ... OptM3 with GC (2021)
Angular Grid (max. ang.)         AngularGrid ... 1 (Lebedev-50)
Angular grid pruning method      GridPruning ... 4 (adaptive)
Weight generation scheme         WeightScheme... mBecke (2022)
Basis function cutoff            BFCut       ... 1.0000e-11
Integration weight cutoff        WCut        ... 1.0000e-14
Partially contracted basis set               ... on
Rotationally invariant grid construction     ... off
Angular grids for H and He will be reduced by one unit

Total number of grid points                  ...    34859
Total number of batches                      ...      307
Average number of points per batch           ...      113
Average number of grid points per atom       ...      601
UseSFitting                                  ... on

GRIDX 2
-------
General Integration Accuracy     IntAcc      ... 4.020
Radial Grid Type                 RadialGrid  ... OptM3 with GC (2021)
Angular Grid (max. ang.)         AngularGrid ... 2 (Lebedev-110)
Angular grid pruning method      GridPruning ... 4 (adaptive)
Weight generation scheme         WeightScheme... mBecke (2022)
Basis function cutoff            BFCut       ... 1.0000e-11
Integration weight cutoff        WCut        ... 1.0000e-14
Partially contracted basis set               ... on
Rotationally invariant grid construction     ... off
Angular grids for H and He will be reduced by one unit

Total number of grid points                  ...    75427
Total number of batches                      ...      622
Average number of points per batch           ...      121
Average number of grid points per atom       ...     1300
UseSFitting                                  ... on

GRIDX 3
-------
General Integration Accuracy     IntAcc      ... 4.338
Radial Grid Type                 RadialGrid  ... OptM3 with GC (2021)
Angular Grid (max. ang.)         AngularGrid ... 3 (Lebedev-194)
Angular grid pruning method      GridPruning ... 4 (adaptive)
Weight generation scheme         WeightScheme... mBecke (2022)
Basis function cutoff            BFCut       ... 1.0000e-11
Integration weight cutoff        WCut        ... 1.0000e-14
Partially contracted basis set               ... on
Rotationally invariant grid construction     ... off
Angular grids for H and He will be reduced by one unit

Total number of grid points                  ...   164755
Total number of batches                      ...     1314
Average number of points per batch           ...      125
Average number of grid points per atom       ...     2841
UseSFitting                                  ... on
Initializing property integral containers    ... done (  0.0 sec)

SHARK setup successfully completed in   4.3 seconds

Maximum memory used throughout the entire STARTUP-calculation: 119.0 MB


           ************************************************************
           *        Program running with 25 parallel MPI-processes    *
           *              working on a common directory               *
           ************************************************************
-------------------------------------------------------------------------------
                                 ORCA GUESS
                   Start orbitals & Density for SCF / CASSCF
-------------------------------------------------------------------------------

------------
SCF SETTINGS
------------
Hamiltonian:
 Density Functional     Method          .... DFT(GTOs)
 Exchange Functional    Exchange        .... B88
   X-Alpha parameter    XAlpha          ....  0.666667
   Becke's b parameter  XBeta           ....  0.004200
 Correlation Functional Correlation     .... LYP
 LDA part of GGA corr.  LDAOpt          .... VWN-5
 Gradients option       PostSCFGGA      .... off
 Hybrid DFT is turned on
   Fraction HF Exchange ScalHFX         ....  0.200000
   Scaling of DF-GGA-X  ScalDFX         ....  0.720000
   Scaling of DF-GGA-C  ScalDFC         ....  0.810000
   Scaling of DF-LDA-C  ScalLDAC        ....  1.000000
   Perturbative correction              ....  0.000000
   NL short-range parameter             ....  4.800000
 RI-approximation to the Coulomb term is turned on
   Number of AuxJ basis functions       .... 1854
   RIJ-COSX (HFX calculated with COS-X)).... on


General Settings:
 Integral files         IntName         .... honokiol2-opt_EC2
 Hartree-Fock type      HFTyp           .... RHF
 Total Charge           Charge          ....    0
 Multiplicity           Mult            ....    1
 Number of Electrons    NEL             ....  234
 Basis Dimension        Dim             .... 1148
 Nuclear Repulsion      ENuc            ....   3044.6099542470 Eh

Convergence Acceleration:
 AO-DIIS                CNVDIIS         .... on
   Start iteration      DIISMaxIt       ....    12
   Startup error        DIISStart       ....  0.200000
   # of expansion vecs  DIISMaxEq       ....     5
   Bias factor          DIISBfac        ....   1.050
   Max. coefficient     DIISMaxC        ....  10.000
 MO-DIIS                CNVKDIIS        .... off
 Trust-Rad. Augm. Hess. CNVTRAH         .... auto
   Auto Start mean grad. ratio tolernc. ....  1.125000
   Auto Start start iteration           ....    50
   Auto Start num. interpolation iter.  ....    10
   Max. Number of Micro iterations      ....    24
   Max. Number of Macro iterations      .... Maxiter - #DIIS iter
   Number of Davidson start vectors     ....     2
   Converg. threshold    (grad. norm)   ....   1.000e-05
   Grad. Scal. Fac. for Micro threshold ....   0.100
   Minimum threshold for Micro iter.    ....   1.000e-02
   NR start threshold (gradient norm)   ....   1.000e-04
   Initial trust radius                 ....   0.400
   Minimum AH scaling param. (alpha)    ....   1.000
   Maximum AH scaling param. (alpha)    .... 1000.000
   Quad. conv. algorithm                .... NR
   White noise on init. David. guess    .... on
   Maximum white noise                  ....   0.010
   Pseudo random numbers                .... off
   Inactive MOs                         .... canonical
   Orbital update algorithm             .... Taylor
   Preconditioner                       .... Diag
   Full preconditioner red. dimension   ....   250
 SOSCF                  CNVSOSCF        .... on
   Start iteration      SOSCFMaxIt      ....   150
   Startup grad/error   SOSCFStart      ....  0.003300
   Hessian update       SOSCFHessUp     .... L-BFGS
 Level Shifting         CNVShift        .... on
   Level shift para.    LevelShift      ....    0.2500
   Turn off err/grad.   ShiftErr        ....    0.0010
 Zerner damping         CNVZerner       .... off
 Static damping         CNVDamp         .... on
   Fraction old density DampFac         ....    0.7000
   Max. Damping (<1)    DampMax         ....    0.9800
   Min. Damping (>=0)   DampMin         ....    0.0000
   Turn off err/grad.   DampErr         ....    0.1000

SCF Procedure:
 Maximum # iterations   MaxIter         ....   125
 SCF integral mode      SCFMode         .... Direct
   Integral package                     .... SHARK and LIBINT hybrid scheme
 Reset frequency        DirectResetFreq ....    20
 Integral Threshold     Thresh          ....  2.500e-11 Eh
 Primitive CutOff       TCut            ....  2.500e-12 Eh

Convergence Tolerance:
 Convergence Check Mode ConvCheckMode   .... Total+1el-Energy
 Convergence forced     ConvForced      .... 0
 Energy Change          TolE            ....  1.000e-08 Eh
 1-El. energy change                    ....  1.000e-05 Eh
 Orbital Gradient       TolG            ....  1.000e-05
 Orbital Rotation angle TolX            ....  1.000e-05
 DIIS Error             TolErr          ....  5.000e-07

------------------------------
INITIAL GUESS: MODEL POTENTIAL
------------------------------
Loading Hartree-Fock densities                     ... done
Calculating cut-offs                               ... done
Initializing the effective Hamiltonian             ... done
Setting up the integral package (SHARK)            ... done
Starting the Coulomb interaction                   ... done (   0.3 sec)
Making the grid                                    ... done (   0.3 sec)
Mapping shells                                     ... done
Starting the XC term evaluation                    ... done (   0.1 sec)
  promolecular density results
     # of electrons  =    233.993766725
     EX              =   -196.780791104
     EC              =     -8.009805069
     EX+EC           =   -204.790596174
Transforming the Hamiltonian                       ... done (   0.1 sec)
Diagonalizing the Hamiltonian                      ... done (   0.2 sec)
Back transforming the eigenvectors                 ... done (   0.1 sec)
Now organizing SCF variables                       ... done
                      ------------------
                      INITIAL GUESS DONE (   1.2 sec)
                      ------------------
             **** ENERGY FILE WAS UPDATED (honokiol2-opt_EC2.en.tmp) ****
Finished Guess after   2.1 sec
Maximum memory used throughout the entire GUESS-calculation: 103.4 MB


           ************************************************************
           *        Program running with 25 parallel MPI-processes    *
           *              working on a common directory               *
           ************************************************************

-------------------------------------------------------------------------------------------
                                      ORCA LEAN-SCF
                              memory conserving SCF solver
-------------------------------------------------------------------------------------------

----------------------------------------D-I-I-S--------------------------------------------
Iteration    Energy (Eh)           Delta-E    RMSDP     MaxDP     DIISErr   Damp  Time(sec)
-------------------------------------------------------------------------------------------
               ***  Starting incremental Fock matrix formation  ***
    1    -1530.7880987881158035     0.00e+00  1.05e-03  1.41e-01  3.08e-01  0.700   6.4
    2    -1531.2227420108906699    -4.35e-01  9.29e-04  1.52e-01  1.11e-01  0.700   4.2
                               ***Turning on AO-DIIS***
    3    -1531.3904869442217205    -1.68e-01  3.74e-04  4.88e-02  3.78e-02  0.700   3.7
    4    -1531.4936148086449066    -1.03e-01  5.10e-04  4.75e-02  1.81e-02  0.000   3.5
    5    -1531.7203494077025425    -2.27e-01  2.40e-04  4.16e-02  5.74e-03  0.000   3.8
                              *** Initializing SOSCF ***
---------------------------------------S-O-S-C-F--------------------------------------
Iteration    Energy (Eh)           Delta-E    RMSDP     MaxDP     MaxGrad    Time(sec)
--------------------------------------------------------------------------------------
    6    -1531.7215225827544600    -1.17e-03  8.58e-05  1.38e-02  1.87e-03     3.8
               *** Restarting incremental Fock matrix formation ***
    7    -1531.7215749325246179    -5.23e-05  6.22e-05  9.31e-03  3.65e-04     6.1
    8    -1531.7215551483291165     1.98e-05  1.21e-05  1.74e-03  9.10e-04     4.3
    9    -1531.7215871640578371    -3.20e-05  6.30e-06  6.78e-04  7.92e-05     3.8
   10    -1531.7215866152796480     5.49e-07  2.74e-06  4.24e-04  1.22e-04     3.4
   11    -1531.7215875880542626    -9.73e-07  1.54e-06  1.74e-04  1.28e-05     3.1
   12    -1531.7215876057239257    -1.77e-08  8.29e-07  1.06e-04  2.13e-05     2.9
   13    -1531.7215875759916344     2.97e-08  1.56e-06  1.83e-04  3.97e-06     2.6
   14    -1531.7215875607348607     1.53e-08  8.28e-07  8.65e-05  5.30e-06     2.6
   15    -1531.7215876325622048    -7.18e-08  2.16e-06  3.74e-04  6.90e-07     2.4
                  *** Gradient check signals convergence ***

               *****************************************************
               *                     SUCCESS                       *
               *           SCF CONVERGED AFTER  15 CYCLES          *
               *****************************************************

Recomputing exchange energy using gridx3       ... done (    9.158 sec)
Old exchange energy                            :    -39.931149928 Eh
New exchange energy                            :    -39.931183687 Eh
Exchange energy change after final integration :     -0.000033759 Eh
Total energy after final integration           :  -1531.721621391 Eh
             **** ENERGY FILE WAS UPDATED (honokiol2-opt_EC2.en.tmp) ****

----------------
TOTAL SCF ENERGY
[...]
  20 H     1.0000    0     1.008   -1.934236    0.560346   -1.787423
  21 H     1.0000    0     1.008    2.246562   -1.777347   -2.670723
  22 H     1.0000    0     1.008    0.980076   -2.134158    5.261483
  23 H     1.0000    0     1.008   -8.204678    0.608614   -0.300645
  24 H     1.0000    0     1.008   -6.118307    0.221403   -2.831192
  25 H     1.0000    0     1.008    6.824687   -2.785240   -4.920217
  26 H     1.0000    0     1.008    8.725893   -0.072600   -5.061494
  27 H     1.0000    0     1.008    9.072418    2.328946   -1.346674
  28 H     1.0000    0     1.008   -3.299975   -3.580463    6.436796
  29 H     1.0000    0     1.008    7.381863    3.750877    2.778646
  30 H     1.0000    0     1.008   -7.008706   -4.577259   -2.702391
  31 H     1.0000    0     1.008    5.086360    2.275198   -7.220001
  32 H     1.0000    0     1.008    1.379105    2.236504    4.987107
  33 H     1.0000    0     1.008   -8.400610   -3.457892    2.382057
  34 H     1.0000    0     1.008  -11.530756   -5.244079   -2.299970
  35 H     1.0000    0     1.008  -11.920542   -2.059799   -0.926704
  36 H     1.0000    0     1.008    3.080413   -0.412150  -10.349320
  37 H     1.0000    0     1.008    4.258064   -3.260370   -8.715290
  38 H     1.0000    0     1.008   -9.856133    6.588305    7.520585
  39 H     1.0000    0     1.008   -9.770606    3.930667   11.268058
  40 C     6.0000    0    12.011   -8.717343    4.879385    7.350241
  41 O     8.0000    0    15.999   -5.948142    4.452629   10.736757
  42 C     6.0000    0    12.011   -4.698433    5.540941    8.819368
  43 C     6.0000    0    12.011   -8.344989    3.488413    9.856294
  44 O     8.0000    0    15.999   -6.165370    5.602354    6.705032
  45 O     8.0000    0    15.999   -2.602403    6.362411    8.885908
  46 H     1.0000    0     1.008   -9.467000    3.699401    5.842286
  47 H     1.0000    0     1.008   -8.178438    1.448765    9.618385
  48 O     8.0000    0    15.999  -10.133343    3.754127    0.432597
  49 C     6.0000    0    12.011   -8.677150    5.474475    0.582276
  50 O     8.0000    0    15.999   -6.227375    5.362659   -0.103983
  51 O     8.0000    0    15.999   -9.248595    7.766148    1.554936
  52 C     6.0000    0    12.011   -4.923094    7.536926    0.948593
  53 C     6.0000    0    12.011   -7.078358    9.408474    1.337132
  54 H     1.0000    0     1.008   -4.143170    6.933592    2.748233
  55 H     1.0000    0     1.008   -7.381867   10.675890   -0.260130
  56 H     1.0000    0     1.008   -3.483880    8.150690   -0.377747
  57 H     1.0000    0     1.008   -6.891539   10.485562    3.076999

--------------------------------
INTERNAL COORDINATES (ANGSTROEM)
--------------------------------
 O      0   0   0     0.000000000000     0.00000000     0.00000000
 O      1   0   0     6.333095337477     0.00000000     0.00000000
 C      1   2   0     2.435606770596    63.15778913     0.00000000
 C      3   1   2     1.486104299017    93.87565199     0.30867405
 C      2   1   3     2.431351058073    48.22979125   326.90136912
 C      5   2   1     1.392897606508   146.39913340    22.85387652
 C      3   1   2     2.448881598470   117.27756505   179.62631194
 C      7   3   1     1.392778031602    28.68660368   181.24897183
 C      1   2   3     1.359208007354    92.01185980   359.70191312
 C      4   3   1     1.400042018282   121.94627906   307.12439200
 C      2   1   3     1.373272504943    24.62146452   357.59360728
 C      5   2   1     1.515446825103    92.79337969   205.37993029
 C      7   3   1     1.517197947078   149.43346687   179.47209186
 C      7   3   1     1.394238799695    89.01954627     0.76598988
 C     10   4   3     1.388145176681   120.88599474   181.72536225
 C     14   7   3     1.386599008711   121.12082921   359.57143140
 C     12   5   2     1.507160796941   113.90522535   300.51992119
 C     13   7   3     1.504015093894   113.44520216    65.04755661
 C     17  12   5     1.330375719114   125.03184769   126.18072552
 C     18  13   7     1.327791911760   125.20947261   237.56111146
 H      6   5   2     1.083926639846   118.37689532   182.10329708
 H      8   7   3     1.084144785826   119.05785088   181.18045929
 H     10   4   3     1.083409517756   119.90096773   359.06570141
 H     12   5   2     1.096397624429   110.34368647    64.00210126
 H     12   5   2     1.093440441124   108.18463053   179.41512079
 H     13   7   3     1.094398614533   110.16015133   302.39520338
 H     13   7   3     1.095090005588   108.39663026   186.21113652
 H     14   7   3     1.084294710619   119.71628613   179.55660652
 H     15  10   4     1.082539034809   120.79261893   177.90420303
 H     16  14   7     1.082571909645   121.22556829   180.77844783
 H     17  12   5     1.087500776094   115.76021653   306.16228682
 H     18  13   7     1.087495697587   115.58005947    57.24227288
 H      1   2   3     0.966005777669    20.75272511   158.79432803
 H      2   1   3     0.971083614112   131.12313063   325.92627018
 H     19  17  12     1.082903329955   121.57150970   179.23942290
 H     19  17  12     1.085173440704   121.61192786     0.68972378
 H     20  18  13     1.082995888654   121.66589618   180.21685328
 H     20  18  13     1.084971469762   121.58469488   359.89092591
 H     24  12   5     5.282653079593   143.74138322     5.23806581
 H     39  24  12     2.431562435826   106.82435577   300.24948242
 C     39  24  12     1.090447353822    49.23574242   332.73955309
 O     40  39  24     2.060801057965    80.18218398    81.48672769
 C     42  40  39     1.341083485081   130.15038439   352.25214989
 C     40  39  24     1.087204928432    64.97626863    40.48686578
 O     43  42  40     1.362165199281   110.52819169   339.43719195
 O     43  42  40     1.191833667549   126.38426164   159.35352588
 H     41  39  24     1.088135075933   109.57518479   333.60124327
 H     44  40  39     1.090221110795   110.39897648   222.38098100
 O     24  12   5     1.990694356887   161.46190190   103.22648294
 C     49  24  12     1.195343323218   108.61592649   315.25121684
 O     50  49  24     1.347569572963   124.67089921    11.39388242
 O     50  49  24     1.351670179903   124.35403811   194.04873934
 C     51  50  49     1.452733949764   108.59928022   194.85315107
 C     52  50  49     1.444818443379   109.35789484   182.43134600
 H     53  51  50     1.085909242834   106.49669682    93.25692955
 H     54  52  50     1.090889087232   108.33660639   101.93552773
 H     53  51  50     1.085422396885   108.80952604   215.18040128
 H     54  52  50     1.087347746273   108.66457846   221.80351769

---------------------------
INTERNAL COORDINATES (A.U.)
---------------------------
 O      0   0   0     0.000000000000     0.00000000     0.00000000
 O      1   0   0    11.967815767845     0.00000000     0.00000000
 C      1   2   0     4.602629766352    63.15778913     0.00000000
 C      3   1   2     2.808330131585    93.87565199     0.30867405
 C      2   1   3     4.594587635177    48.22979125   326.90136912
 C      5   2   1     2.632195008894   146.39913340    22.85387652
 C      3   1   2     4.627715555507   117.27756505   179.62631194
 C      7   3   1     2.631969045070    28.68660368   181.24897183
 C      1   2   3     2.568530892932    92.01185980   359.70191312
 C      4   3   1     2.645695990535   121.94627906   307.12439200
 C      2   1   3     2.595108941586    24.62146452   357.59360728
 C      5   2   1     2.863779469965    92.79337969   205.37993029
 C      7   3   1     2.867088610926   149.43346687   179.47209186
 C      7   3   1     2.634729496711    89.01954627     0.76598988
 C     10   4   3     2.623214218051   120.88599474   181.72536225
 C     14   7   3     2.620292384031   121.12082921   359.57143140
 C     12   5   2     2.848121146002   113.90522535   300.51992119
 C     13   7   3     2.842176628744   113.44520216    65.04755661
 C     17  12   5     2.514045764343   125.03184769   126.18072552
 C     18  13   7     2.509163076062   125.20947261   237.56111146
 H      6   5   2     2.048324498571   118.37689532   182.10329708
 H      8   7   3     2.048736734730   119.05785088   181.18045929
 H     10   4   3     2.047347279443   119.90096773   359.06570141
 H     12   5   2     2.071891244053   110.34368647    64.00210126
 H     12   5   2     2.066302977479   108.18463053   179.41512079
 H     13   7   3     2.068113662810   110.16015133   302.39520338
 H     13   7   3     2.069420202556   108.39663026   186.21113652
 H     14   7   3     2.049020051530   119.71628613   179.55660652
 H     15  10   4     2.045702305068   120.79261893   177.90420303
 H     16  14   7     2.045764429505   121.22556829   180.77844783
 H     17  12   5     2.055078637244   115.76021653   306.16228682
 H     18  13   7     2.055069040258   115.58005947    57.24227288
 H      1   2   3     1.825486363579    20.75272511   158.79432803
 H      2   1   3     1.835082083809   131.12313063   325.92627018
 H     19  17  12     2.046390723127   121.57150970   179.23942290
 H     19  17  12     2.050680610736   121.61192786     0.68972378
 H     20  18  13     2.046565633719   121.66589618   180.21685328
 H     20  18  13     2.050298940969   121.58469488   359.89092591
 H     24  12   5     9.982767580947   143.74138322     5.23806581
 H     39  24  12     4.594987081242   106.82435577   300.24948242
 C     39  24  12     2.060646862182    49.23574242   332.73955309
 O     40  39  24     3.894349616050    80.18218398    81.48672769
 C     42  40  39     2.534280509528   130.15038439   352.25214989
 C     40  39  24     2.054519566186    64.97626863    40.48686578
 O     43  42  40     2.574119175800   110.52819169   339.43719195
 O     43  42  40     2.252239228855   126.38426164   159.35352588
 H     41  39  24     2.056277290227   109.57518479   333.60124327
 H     44  40  39     2.060219324821   110.39897648   222.38098100
 O     24  12   5     3.761867150858   161.46190190   103.22648294
 C     49  24  12     2.258871516893   108.61592649   315.25121684
 O     50  49  24     2.546537439306   124.67089921    11.39388242
 O     50  49  24     2.554286463404   124.35403811   194.04873934
 C     51  50  49     2.745269310504   108.59928022   194.85315107
 C     52  50  49     2.730311171225   109.35789484   182.43134600
 H     53  51  50     2.052071075249   106.49669682    93.25692955
 H     54  52  50     2.061481617352   108.33660639   101.93552773
 H     53  51  50     2.051151069737   108.80952604   215.18040128
 H     54  52  50     2.054789452793   108.66457846   221.80351769



           ************************************************************
           *        Program running with 25 parallel MPI-processes    *
           *              working on a common directory               *
           ************************************************************
------------------------------------------------------------------------------
                   ___                                                        
                  /   \      - P O W E R E D   B Y -                         
                 /     \                                                     
                 |  |  |   _    _      __       _____    __    __             
                 |  |  |  | |  | |    /  \     |  _  \  |  |  /  |          
                  \  \/   | |  | |   /    \    | | | |  |  | /  /          
                 / \  \   | |__| |  /  /\  \   | |_| |  |  |/  /          
                |  |  |   |  __  | /  /__\  \  |    /   |      \           
                |  |  |   | |  | | |   __   |  |    \   |  |\   \          
                \     /   | |  | | |  |  |  |  | |\  \  |  | \   \       
                 \___/    |_|  |_| |__|  |__|  |_| \__\ |__|  \__/        
                                                                              
                      - O R C A' S   B I G   F R I E N D -                    
                                      &                                       
                       - I N T E G R A L  F E E D E R -                       
                                                                              
 v1 FN, 2020, v2 2021, v3 2022-2024                                           
------------------------------------------------------------------------------


----------------------
SHARK INTEGRAL PACKAGE
----------------------

Number of atoms                             ...     58
Number of basis functions                   ...   1148
Number of shells                            ...    456
Maximum angular momentum                    ...      3
Integral batch strategy                     ... SHARK/LIBINT Hybrid
RI-J (if used) integral strategy            ... SPLIT-RIJ (Revised 2003 algorithm where possible)
Printlevel                                  ...      1
Contraction scheme used                     ... SEGMENTED contraction
Prescreening option                         ... SCHWARTZ
   Thresh                                   ... 2.500e-11
   Tcut                                     ... 2.500e-12
   Tpresel                                  ... 2.500e-12 
Coulomb Range Separation                    ... NOT USED
Exchange Range Separation                   ... NOT USED
Multipole approximations                    ... NOT USED
Finite Nucleus Model                        ... NOT USED
CABS basis                                  ... NOT available
Auxiliary Coulomb fitting basis             ... AVAILABLE
   # of basis functions in Aux-J            ...   1854
   # of shells in Aux-J                     ...    610
   Maximum angular momentum in Aux-J        ...      4
Auxiliary J/K fitting basis                 ... NOT available
Auxiliary Correlation fitting basis         ... NOT available
Auxiliary 'external' fitting basis          ... NOT available

Checking pre-screening integrals            ... done (  0.0 sec) Dimension = 456
Check shell pair data                       ... done (  0.0 sec)
Shell pair information
Shell pair cut-off parameter TPreSel        ...   2.5e-12
Total number of shell pairs                 ...    104196
Shell pairs after pre-screening             ...     60010
Total number of primitive shell pairs       ...    317988
Primitive shell pairs kept                  ...    115844
          la=0 lb=0:  16132 shell pairs
          la=1 lb=0:  17890 shell pairs
          la=1 lb=1:   5016 shell pairs
          la=2 lb=0:   8179 shell pairs
          la=2 lb=1:   4677 shell pairs
          la=2 lb=2:   1080 shell pairs
          la=3 lb=0:   3739 shell pairs
          la=3 lb=1:   2168 shell pairs
          la=3 lb=2:    917 shell pairs
          la=3 lb=3:    212 shell pairs

Calculating one electron integrals          ... done (  0.1 sec)
Calculating RI/J V-Matrix + Cholesky decomp.... done (  0.2 sec)
Calculating Nuclear repulsion               ... done (  0.0 sec) ENN=   3224.658170464158 Eh

Diagonalization of the overlap matrix:
Smallest eigenvalue                        ... 6.191e-06
Time for diagonalization                   ...    0.227 sec
Threshold for overlap eigenvalues          ... 1.000e-07
Number of eigenvalues below threshold      ... 0
Time for construction of square roots      ...    0.107 sec
Total time needed                          ...    0.346 sec

-------------------
DFT GRID GENERATION
-------------------

General Integration Accuracy     IntAcc      ... 4.388
Radial Grid Type                 RadialGrid  ... OptM3 with GC (2021)
Angular Grid (max. ang.)         AngularGrid ... 4 (Lebedev-302)
Angular grid pruning method      GridPruning ... 4 (adaptive)
Weight generation scheme         WeightScheme... mBecke (2022)
Basis function cutoff            BFCut       ... 1.0000e-11
Integration weight cutoff        WCut        ... 1.0000e-14
Partially contracted basis set               ... off
Rotationally invariant grid construction     ... off
Angular grids for H and He will be reduced by one unit

Total number of grid points                  ...   274187
Total number of batches                      ...     4312
Average number of points per batch           ...       63
Average number of grid points per atom       ...     4727

--------------------
COSX GRID GENERATION
--------------------

GRIDX 1
-------
General Integration Accuracy     IntAcc      ... 3.816
Radial Grid Type                 RadialGrid  ... OptM3 with GC (2021)
Angular Grid (max. ang.)         AngularGrid ... 1 (Lebedev-50)
Angular grid pruning method      GridPruning ... 4 (adaptive)
Weight generation scheme         WeightScheme... mBecke (2022)
Basis function cutoff            BFCut       ... 1.0000e-11
Integration weight cutoff        WCut        ... 1.0000e-14
Partially contracted basis set               ... on
Rotationally invariant grid construction     ... off
Angular grids for H and He will be reduced by one unit

Total number of grid points                  ...    34703
Total number of batches                      ...      309
Average number of points per batch           ...      112
Average number of grid points per atom       ...      598
UseSFitting                                  ... on

GRIDX 2
-------
General Integration Accuracy     IntAcc      ... 4.020
Radial Grid Type                 RadialGrid  ... OptM3 with GC (2021)
Angular Grid (max. ang.)         AngularGrid ... 2 (Lebedev-110)
Angular grid pruning method      GridPruning ... 4 (adaptive)
Weight generation scheme         WeightScheme... mBecke (2022)
Basis function cutoff            BFCut       ... 1.0000e-11
Integration weight cutoff        WCut        ... 1.0000e-14
Partially contracted basis set               ... on
Rotationally invariant grid construction     ... off
Angular grids for H and He will be reduced by one unit

Total number of grid points                  ...    74979
Total number of batches                      ...      619
Average number of points per batch           ...      121
Average number of grid points per atom       ...     1293
UseSFitting                                  ... on

GRIDX 3
-------
General Integration Accuracy     IntAcc      ... 4.338
Radial Grid Type                 RadialGrid  ... OptM3 with GC (2021)
Angular Grid (max. ang.)         AngularGrid ... 3 (Lebedev-194)
Angular grid pruning method      GridPruning ... 4 (adaptive)
Weight generation scheme         WeightScheme... mBecke (2022)
Basis function cutoff            BFCut       ... 1.0000e-11
Integration weight cutoff        WCut        ... 1.0000e-14
Partially contracted basis set               ... on
Rotationally invariant grid construction     ... off
Angular grids for H and He will be reduced by one unit

Total number of grid points                  ...   163531
Total number of batches                      ...     1305
Average number of points per batch           ...      125
Average number of grid points per atom       ...     2820
UseSFitting                                  ... on
Initializing property integral containers    ... done (  0.0 sec)

SHARK setup successfully completed in   4.4 seconds

Maximum memory used throughout the entire STARTUP-calculation: 135.9 MB


           ************************************************************
           *        Program running with 25 parallel MPI-processes    *
           *              working on a common directory               *
           ************************************************************
Occupation numbers will be reassigned to an Aufbau configuration
             **** ENERGY FILE WAS UPDATED (honokiol2-opt_EC2.en.tmp) ****
Finished Guess after   1.9 sec
Maximum memory used throughout the entire GUESS-calculation: 133.5 MB

ORCA finished by error termination in LEANSCF
Calling Command: mpirun -np 25  /home/yongsang/orca_6_0_1_linux_x86-64_shared_openmpi416/orca_leanscf_mpi honokiol2-opt_EC2.gbw honokiol2-opt_EC2 
[file orca_tools/qcmsg.cpp, line 394]: 
  .... aborting the run

