
                                 *****************
                                 * O   R   C   A *
                                 *****************

                                            #,                                       
                                            ###                                      
                                            ####                                     
                                            #####                                    
                                            ######                                   
                                           ########,                                 
                                     ,,################,,,,,                         
                               ,,#################################,,                 
                          ,,##########################################,,             
                       ,#########################################, ''#####,          
                    ,#############################################,,   '####,        
                  ,##################################################,,,,####,       
                ,###########''''           ''''###############################       
              ,#####''   ,,,,##########,,,,          '''####'''          '####       
            ,##' ,,,,###########################,,,                        '##       
           ' ,,###''''                  '''############,,,                           
         ,,##''                                '''############,,,,        ,,,,,,###''
      ,#''                                            '''#######################'''  
     '                                                          ''''####''''         
             ,#######,   #######,   ,#######,      ##                                
            ,#'     '#,  ##    ##  ,#'     '#,    #''#        ,####,   ,####,        
            ##       ##  ##   ,#'  ##            #'  '#       #'       #'  '#        
            ##       ##  #######   ##           ,######,      #####,   #    #        
            '#,     ,#'  ##    ##  '#,     ,#' ,#      #,     #,   #   #,  ,#        
             '#######'   ##     ##  '#######'  #'      '#     '####' # '####'        



                #########################################################
                #                        -***-                          #
                #          Department of theory and spectroscopy        #
                #                                                       #
                #                      Frank Neese                      #
                #                                                       #
                #     Directorship, Architecture, Infrastructure        #
                #                    SHARK, DRIVERS                     #
                #        Core code/Algorithms in most modules           #
                #                                                       #
                #        Max Planck Institute fuer Kohlenforschung      #
                #                Kaiser Wilhelm Platz 1                 #
                #                 D-45470 Muelheim/Ruhr                 #
                #                      Germany                          #
                #                                                       #
                #                  All rights reserved                  #
                #                        -***-                          #
                #########################################################


                         Program Version 6.0.1  -  RELEASE   -


 With contributions from (in alphabetic order):
[Max-Planck-Institut fuer Kohlenforschung]                               
  Daniel Aravena         : Magnetic Suceptibility                        
  Michael Atanasov       : Ab Initio Ligand Field Theory (pilot matlab implementation)
  Alexander A. Auer      : GIAO ZORA, VPT2 properties, NMR spectrum      
  Ute Becker             : All parallelization in ORCA, NUMFREQ, NUMCALC 
  Giovanni Bistoni       : ED, misc. LED, open-shell LED, HFLD           
  Martin Brehm           : Molecular dynamics                            
  Dmytro Bykov           : pre 5.0 version of the SCF Hessian            
  Marcos Casanova-Páez   : Triplet and SCS-CIS(D). UHF-(DLPNO)-IP/EA/STEOM-CCSD. UHF-CVS-IP/STEOM-CCSD   
  Vijay G. Chilkuri      : MRCI spin determinant printing, contributions to CSF-ICE 
  Pauline Colinet        : FMM embedding                                 
  Dipayan Datta          : RHF DLPNO-CCSD density                        
  Achintya Kumar Dutta   : EOM-CC, STEOM-CC                              
  Nicolas Foglia         : Exact transition moments, OPA infrastructure, MCD improvements    
  Dmitry Ganyushin       : Spin-Orbit,Spin-Spin,Magnetic field MRCI      
  Miquel Garcia-Rates    : C-PCM and meta-GGA Hessian, CCSD/C-PCM, Gaussian charge scheme 
  Tiago L. C. Gouveia    : GS-ROHF, GS-ROCIS                             
  Yang Guo               : DLPNO-NEVPT2, F12-NEVPT2, CIM, IAO-localization        
  Andreas Hansen         : Spin unrestricted coupled pair/coupled cluster methods 
  Ingolf Harden          : AUTO-CI MPn and infrastructure                
  Benjamin Helmich-Paris : MC-RPA, TRAH-(SCF,CASSCF), AVAS, COSX integrals, SCF dyn. polar. 
  Lee Huntington         : MR-EOM, pCC                                   
  Robert Izsak           : Overlap fitted RIJCOSX, COSX-SCS-MP3, EOM     
  Riya Kayal             : Wick's Theorem for AUTO-CI, AUTO-CI UHF-CCSDT 
  Emily Kempfer          : AUTO-CI, RHF CISDT and CCSDT                  
  Christian Kollmar      : KDIIS, OOCD, Brueckner-CCSD(T), CCSD density, CASPT2, CASPT2-K, improved NEVPT2 
  Axel Koslowski         : Symmetry handling                             
  Simone Kossmann        : meta-GGA functionals, TD-DFT gradient, OOMP2, (MP2 Hessian; deprecated post 5.0) 
  Lucas Lang             : DCDCAS                                        
  Marvin Lechner         : AUTO-CI (C++ implementation), FIC-MRCC        
  Spencer Leger          : CASSCF response                               
  Dagmar Lenk            : GEPOL surface, SMD, ORCA-2-JSON               
  Dimitrios Liakos       : Extrapolation schemes; Compound Job, initial MDCI parallelization 
  Dimitrios Manganas     : Further ROCIS development; embedding schemes. LFT, Crystal Embedding 
  Dimitrios Pantazis     : SARC Basis sets                               
  Anastasios Papadopoulos: AUTO-CI, single reference methods and gradients 
  Taras Petrenko         : pre 6.0 DFT Hessian and TD-DFT gradient, (ASA, deprecated), ECA, 1-Electron XAS/XES, NRVS 
  Peter Pinski           : DLPNO-MP2, DLPNO-MP2 Gradient                 
  Christoph Reimann      : Effective Core Potentials                     
  Marius Retegan         : Local ZFS, SOC                                
  Christoph Riplinger    : Optimizer, TS searches, QM/MM, DLPNO-CCSD(T), (RO)-DLPNO pert. Triples 
  Michael Roemelt        : Original ROCIS implementation                 
  Masaaki Saitow         : Open-shell DLPNO-CCSD energy and density      
  Barbara Sandhoefer     : DKH picture change effects                    
  Kantharuban Sivalingam : CASSCF convergence/infrastructure, NEVPT2 and variants, FIC-MRCI 
  Bernardo de Souza      : ESD, SOC TD-DFT                               
  Georgi L. Stoychev     : AutoAux, RI-MP2 NMR, DLPNO-MP2 response, X2C  
  Van Anh Tran           : RI-MP2 g-tensors                              
  Willem Van den Heuvel  : Paramagnetic NMR                              
  Zikuan Wang            : NOTCH, Electric field optimization            
  Frank Wennmohs         : Technical directorship and infrastructure     
  Hang Xu                : AUTO-CI-Response properties                   
                                                                         
[FACCTs GmbH]                                                            
  Markus Bursch, Miquel Garcia-Rates, Christoph Riplinger, Bernardo de Souza, Georgi L. Stoychev 
                                                                 
  APM, Basis sets (HGBS, AHGBS, def-TZVP (Ac-Lr), def2-XVPD (La-Lu)), CI-OPT, improved COSX, DLPNO-Multilevel,           
  DOCKER, DRACO, updates on ESD, GOAT, IRC, LR-CPCM, MBIS, meta-GGA TD-DFT gradient, ML-optimized integration grids, 
  MM, NACMEs, nearIR, NEB, NEB-TS, NL-DFT gradient (VV10), 2- and 3-layer-ONIOM, interface openCOSMO-RS, QMMM,   
  Crystal-QMMM, SF, symmetry and pop. for TD-DFT, r2SCAN hybrids, SOLVATOR                                   
                                                                         
[Other institutions]                                                     
  V. Asgeirsson          : NEB                                           
  Christoph Bannwarth    : sTDA-DFT, sTD-DFT, PBEh-3c, B97-3c, D3        
  Sebastian Ehlert       : rSCAN, r2SCAN, r2SCAN-3c, D4, dhf basis sets  
  Marvin Friede          : D4 for Fr, Ra, Ac-Lr                          
  Lars Goerigk           : TD-DFT with DH, B97 family of functionals     
  Stefan Grimme          : VdW corrections, initial TS optimization, DFT functionals, gCP, sTDA/sTD-DF 
  Waldemar Hujo          : DFT-NL                                        
  H. Jonsson             : NEB                                           
  Holger Kruse           : gCP                                           
  Marcel Mueller         : wB97X-3c, vDZP basis set                      
  Hagen Neugebauer       : wr2SCAN                                       
  Tobias Risthaus        : range-separated hybrid DFT                    
  Lukas Wittmann         : regularized MP2, r2SCAN double-hybrids, wr2SCAN        
                                                                         
We gratefully acknowledge several colleagues who have allowed us to      
interface, adapt or use parts of their codes:                            
  Ed Valeev, F. Pavosevic, A. Kumar             : LibInt (2-el integral package), F12 methods 
  Garnet Chan, S. Sharma, J. Yang, R. Olivares  : DMRG                   
  Ulf Ekstrom                                   : XCFun DFT Library      
  Mihaly Kallay                                 : mrcc  (arbitrary order and MRCC methods)
  Frank Weinhold                                : gennbo (NPA and NBO analysis)           
  Simon Mueller                                 : openCOSMO-RS                            
  Christopher J. Cramer and Donald G. Truhlar   : smd solvation model                     
  S Lehtola, MJT Oliveira, MAL Marques          : LibXC Library                           
  Liviu Ungur et al                             : ANISO software                          


 Your calculation uses the libint2 library for the computation of 2-el integrals
 For citations please refer to: http://libint.valeyev.net

 Your ORCA version has been built with support for libXC version: 6.2.2
 For citations please refer to: https://libxc.gitlab.io

 This ORCA versions uses:
   CBLAS   interface :  Fast vector & matrix operations
   LAPACKE interface :  Fast linear algebra routines
   SCALAPACK package :  Parallel linear algebra routines
   Shared memory     :  Shared parallel matrices
   BLAS/LAPACK       :  OpenBLAS 0.3.27  USE64BITINT DYNAMIC_ARCH NO_AFFINITY SkylakeX SINGLE_THREADED
        Core in use  :  SkylakeX
   Copyright (c) 2011-2014, The OpenBLAS Project


NOTE: MaxCore=5000 MB was set to SCF,MP2,MDCI,CIPSI,MRCI and CIS
      => If you want to overwrite this, your respective input block should be placed after the MaxCore statement
Warning: RI is on but no J-basis has been assigned. Assigning Def2/J (nothing to worry about!)
================================================================================

----- Orbital basis set information -----
Your calculation utilizes the basis: def2-TZVP
   F. Weigend and R. Ahlrichs, Phys. Chem. Chem. Phys. 7, 3297 (2005).

----- AuxJ basis set information -----
Your calculation utilizes the auxiliary basis: def2/J
   F. Weigend, Phys. Chem. Chem. Phys. 8, 1057 (2006).

================================================================================
                                        WARNINGS
                       Please study these warnings very carefully!
================================================================================


WARNING: Geometry Optimization
  ===> : Switching off AutoStart
         For restart on a previous wavefunction, please use MOREAD

================================================================================
                                       INPUT FILE
================================================================================
NAME = honokiol3.inp
|  1> ! Opt B3LYP def2-TZVP TightSCF TightOpt
|  2> 
|  3> %maxcore 5000
|  4> 
|  5> %pal
|  6> nprocs 20
|  7> end
|  8> 
|  9> * xyz 0 1
| 10> O        1.8251442784      1.1206360781      2.5320298046                 
| 11> O       -3.8080222474     -1.9911814643      2.1442430961                 
| 12> C        1.2725089502     -0.0621994345      0.4589600093                 
| 13> C       -0.0769873412     -0.5626460918      0.8985896519                 
| 14> C       -2.4071461680     -1.1463778167      0.3526969481                 
| 15> C       -1.1391287666     -0.6652078118     -0.0260370713                 
| 16> C        2.9708247325      0.0217262813     -1.3253104399                 
| 17> C        1.7089979231     -0.3711472447     -0.8509651413                 
| 18> C        2.1529324399      0.6887637815      1.2943222266                 
| 19> C       -0.3140389987     -0.9810841158      2.2213585045                 
| 20> C       -2.6169242883     -1.5389282111      1.6964115731                 
| 21> C       -3.4998544999     -1.2215275203     -0.6932055300                 
| 22> C        3.4376225833     -0.3291234030     -2.7242895770                 
| 23> C        3.8227795792      0.7295249378     -0.4693638743                 
| 24> C       -1.5652446686     -1.4573470683      2.6104390735                 
| 25> C        3.4142822112      1.0605631474      0.8188014517                 
| 26> C       -3.8824145750     -2.6508472794     -0.9737129210                 
| 27> C        2.6964749423      0.4116539696     -3.8124590005                 
| 28> C       -5.1348330509     -3.0957696868     -0.8351284007                 
| 29> C        1.4052326479      0.2269567895     -4.1058747457                 
| 30> H       -0.9912347765     -0.3540447378     -1.0515449340                 
| 31> H        1.0809205486     -0.9605711528     -1.4963523938                 
| 32> H        0.4697535128     -0.9737317767      2.9647476821                 
| 33> H       -4.3693183700     -0.6110395356     -0.3651841644                 
| 34> H       -3.1458817815     -0.7956175569     -1.6565475212                 
| 35> H        3.3832947426     -1.4266985302     -2.8873350199                 
| 36> H        4.5052408960     -0.0366402700     -2.8289355172                 
| 37> H        4.8055180021      1.0413040497     -0.8010651203                 
| 38> H       -1.7178975168     -1.7701095008      3.6361325334                 
| 39> H        4.0824510784      1.6305526370      1.4528923190                 
| 40> H       -3.1138008115     -3.3393841216     -1.3130307819                 
| 41> H        3.2557718560      1.1261494052     -4.4101907851                 
| 42> H        0.9355861428      1.1118023086      2.9027189913                 
| 43> H       -4.6043017401     -2.0426923964      1.6026283379                 
| 44> H       -5.3687689302     -4.1324905289     -1.0539446958                 
| 45> H       -5.9330956055     -2.4371687357     -0.5069835777                 
| 46> H        0.9523505193      0.7947997072     -4.9121586464                 
| 47> H        0.7862709446     -0.4848676092     -3.5795887987
| 48> *
| 49> 
| 50>                          ****END OF INPUT****
================================================================================

                       *****************************
                       * Geometry Optimization Run *
                       *****************************

Geometry optimization settings:
Update method            Update   .... BFGS
Choice of coordinates    CoordSys .... (2022) Redundant Internals
Initial Hessian          InHess   .... Almloef's Model
Max. no of cycles        MaxIter  .... 114

Convergence Tolerances:
Energy Change            TolE     ....  1.0000e-06 Eh
Max. Gradient            TolMAXG  ....  1.0000e-04 Eh/bohr
RMS Gradient             TolRMSG  ....  3.0000e-05 Eh/bohr
Max. Displacement        TolMAXD  ....  1.0000e-03 bohr
RMS Displacement         TolRMSD  ....  6.0000e-04 bohr
Strict Convergence                .... False

------------------------------------------------------------------------------
                        ORCA OPTIMIZATION COORDINATE SETUP
------------------------------------------------------------------------------

The optimization will be done in redundant internal coordinates (2022)
Making redundant internal coordinates   ...  (2022 redundants) done
Evaluating the initial hessian          ...  (Almloef) done
Evaluating the coordinates              ...  done
Calculating the B-matrix                .... done
Calculating the G-matrix                .... done
Diagonalizing the G-matrix              .... done
Small eigenvalue found = 8.965e-03
Small eigenvalue found = 1.156e-02
Small eigenvalue found = 1.608e-02
Small eigenvalue found = 2.199e-02
Small eigenvalue found = 2.507e-02
Small eigenvalue found = 2.650e-02
The first mode is                       ....   78
The number of degrees of freedom        ....  108

    -----------------------------------------------------------------
                    Redundant Internal Coordinates


    -----------------------------------------------------------------
         Definition                    Initial Value    Approx d2E/dq
    -----------------------------------------------------------------
      1. B(C   3,C   2)                  1.5049         0.409591   
      2. B(C   5,C   4)                  1.4081         0.584537   
      3. B(C   5,C   3)                  1.4119         0.576397   
      4. B(C   7,C   6)                  1.4041         0.593208   
      5. B(C   7,C   2)                  1.4149         0.570230   
      6. B(C   8,C   2)                  1.4272         0.544975   
      7. B(C   8,O   0)                  1.3513         0.645204   
      8. B(C   9,C   3)                  1.4075         0.585935   
      9. B(C  10,O   1)                  1.3505         0.647030   
     10. B(C  10,C   4)                  1.4155         0.568902   
     11. B(C  11,C   4)                  1.5145         0.395531   
     12. B(C  12,C   6)                  1.5160         0.393347   
     13. B(C  13,C   6)                  1.3998         0.602695   
     14. B(C  14,C  10)                  1.3958         0.611726   
     15. B(C  14,C   9)                  1.3942         0.615285   
     16. B(C  15,C  13)                  1.3913         0.621729   
     17. B(C  15,C   8)                  1.3983         0.605942   
     18. B(C  16,C  11)                  1.5060         0.408029   
     19. B(C  17,C  12)                  1.5107         0.401048   
     20. B(C  18,C  16)                  1.3363         0.761034   
     21. B(C  19,C  17)                  1.3370         0.759155   
     22. B(H  20,C   5)                  1.0818         0.371068   
     23. B(H  21,C   7)                  1.0763         0.378684   
     24. B(H  22,C   9)                  1.0803         0.373186   
     25. B(H  23,C  11)                  1.1119         0.332297   
     26. B(H  24,C  11)                  1.1112         0.333142   
     27. B(H  25,C  12)                  1.1109         0.333427   
     28. B(H  26,C  12)                  1.1119         0.332272   
     29. B(H  27,C  13)                  1.0831         0.369406   
     30. B(H  28,C  14)                  1.0831         0.369304   
     31. B(H  29,C  15)                  1.0832         0.369155   
     32. B(H  30,C  16)                  1.0863         0.365066   
     33. B(H  31,C  17)                  1.0866         0.364687   
     34. B(H  32,O   0)                  0.9637         0.512854   
     35. B(H  33,O   1)                  0.9644         0.511625   
     36. B(H  34,C  18)                  1.0851         0.366669   
     37. B(H  35,C  18)                  1.0857         0.365887   
     38. B(H  36,C  19)                  1.0852         0.366517   
     39. B(H  37,H  24)                  4.3882         0.000000   
     40. B(H  37,C  19)                  1.0802         0.373331   
     41. A(C   8,O   0,H  32)          124.9802         0.371781   
     42. A(C  10,O   1,H  33)          124.0477         0.371809   
     43. A(C   7,C   2,C   8)          117.8061         0.417850   
     44. A(C   3,C   2,C   7)          118.3253         0.397267   
     45. A(C   3,C   2,C   8)          123.8592         0.394122   
     46. A(C   2,C   3,C   9)          121.6298         0.399168   
     47. A(C   2,C   3,C   5)          120.4912         0.398018   
     48. A(C   5,C   3,C   9)          117.8497         0.424104   
     49. A(C  10,C   4,C  11)          122.3368         0.394678   
     50. A(C   5,C   4,C  11)          118.7464         0.396559   
     51. A(C   5,C   4,C  10)          118.9166         0.422932   
     52. A(C   3,C   5,H  20)          119.8039         0.350358   
     53. A(C   3,C   5,C   4)          121.7416         0.423923   
     54. A(C   4,C   5,H  20)          118.4471         0.351189   
     55. A(C   7,C   6,C  13)          118.8065         0.428451   
     56. A(C   7,C   6,C  12)          121.5818         0.397200   
     57. A(C  12,C   6,C  13)          119.5976         0.398308   
     58. A(C   2,C   7,H  21)          119.6506         0.350924   
     59. A(C   6,C   7,H  21)          118.3640         0.353276   
     60. A(C   2,C   7,C   6)          121.9315         0.424223   
     61. A(O   0,C   8,C   2)          123.6870         0.424392   
     62. A(C   2,C   8,C  15)          119.8223         0.422403   
     63. A(O   0,C   8,C  15)          116.4440         0.432539   
     64. A(C   3,C   9,C  14)          120.9967         0.429092   
     65. A(C  14,C   9,H  22)          117.4789         0.354590   
     66. A(C   3,C   9,H  22)          121.5004         0.351669   
     67. A(O   1,C  10,C   4)          122.5726         0.427886   
     68. A(O   1,C  10,C  14)          117.8380         0.433499   
     69. A(C   4,C  10,C  14)          119.5888         0.426386   
     70. A(C   4,C  11,C  16)          111.0397         0.372526   
     71. A(H  23,C  11,H  24)          107.1226         0.283742   
     72. A(C  16,C  11,H  24)          106.4527         0.324874   
     73. A(C   4,C  11,H  24)          110.4791         0.323219   
     74. A(C  16,C  11,H  23)          112.1738         0.324738   
     75. A(C   4,C  11,H  23)          109.4647         0.323084   
     76. A(C   6,C  12,C  17)          113.5892         0.371067   
     77. A(H  25,C  12,H  26)          107.0392         0.283776   
     78. A(C   6,C  12,H  26)          108.7618         0.322787   
     79. A(C  17,C  12,H  25)          110.7781         0.324000   
     80. A(C   6,C  12,H  25)          110.4280         0.322971   
     81. A(C  17,C  12,H  26)          105.9195         0.323815   
     82. A(C   6,C  13,C  15)          120.5138         0.432078   
     83. A(C  15,C  13,H  27)          118.7813         0.354605   
     84. A(C   6,C  13,H  27)          120.6996         0.352742   
     85. A(C  10,C  14,H  28)          119.8060         0.353615   
     86. A(C   9,C  14,H  28)          119.3014         0.353963   
     87. A(C   9,C  14,C  10)          120.8924         0.432424   
     88. A(C  13,C  15,H  29)          119.0815         0.354564   
     89. A(C   8,C  15,H  29)          119.8177         0.353022   
     90. A(C   8,C  15,C  13)          121.0923         0.432496   
     91. A(C  11,C  16,C  18)          122.3278         0.417794   
     92. A(C  18,C  16,H  30)          118.9801         0.366298   
     93. A(C  11,C  16,H  30)          118.6871         0.329810   
     94. A(C  12,C  17,C  19)          124.3441         0.416329   
     95. A(C  19,C  17,H  31)          117.8557         0.366078   
     96. A(C  12,C  17,H  31)          117.7861         0.328815   
     97. A(H  34,C  18,H  35)          118.8182         0.292400   
     98. A(C  16,C  18,H  35)          121.2309         0.366439   
     99. A(C  16,C  18,H  34)          119.9509         0.366573   
    100. A(H  36,C  19,H  37)          117.8843         0.293310   
    101. A(C  17,C  19,H  37)          122.5153         0.367551   
    102. A(C  17,C  19,H  36)          119.5922         0.366392   
    103. D(C   5,C   3,C   2,C   8)    147.4051         0.011507   
    104. D(C   9,C   3,C   2,C   8)    -34.6084         0.011507   
    105. D(C   9,C   3,C   2,C   7)    144.2542         0.011507   
    106. D(C   5,C   3,C   2,C   7)    -33.7323         0.011507   
    107. D(H  20,C   5,C   4,C  11)      0.6875         0.023492   
    108. D(H  20,C   5,C   3,C   2)     -1.8433         0.022813   
    109. D(H  20,C   5,C   4,C  10)   -179.1411         0.023492   
    110. D(C   3,C   5,C   4,C  10)     -0.1283         0.023492   
    111. D(C   3,C   5,C   4,C  11)    179.7003         0.023492   
    112. D(C   4,C   5,C   3,C   9)      1.0959         0.022813   
    113. D(C   4,C   5,C   3,C   2)    179.1569         0.022813   
    114. D(H  20,C   5,C   3,C   9)   -179.9044         0.022813   
    115. D(C   6,C   7,C   2,C   3)   -177.9966         0.022306   
    116. D(C   6,C   7,C   2,C   8)      0.9355         0.022306   
    117. D(H  21,C   7,C   2,C   3)     -0.7106         0.022306   
    118. D(H  21,C   7,C   6,C  13)   -176.7547         0.024230   
    119. D(H  21,C   7,C   6,C  12)      1.8742         0.024230   
    120. D(C   2,C   7,C   6,C  13)      0.5649         0.024230   
    121. D(C   2,C   7,C   6,C  12)    179.1938         0.024230   
    122. D(H  21,C   7,C   2,C   8)    178.2215         0.022306   
    123. D(C  15,C   8,C   2,C   7)     -1.7372         0.020305   
    124. D(C  15,C   8,C   2,C   3)    177.1308         0.020305   
    125. D(O   0,C   8,C   2,C   7)    175.6871         0.020305   
    126. D(C  15,C   8,O   0,H  32)    165.5873         0.030729   
    127. D(O   0,C   8,C   2,C   3)     -5.4449         0.020305   
    128. D(C   2,C   8,O   0,H  32)    -11.9170         0.030729   
    129. D(H  22,C   9,C   3,C   5)    176.9781         0.023610   
    130. D(C  14,C   9,C   3,C   5)     -1.1945         0.023610   
    131. D(H  22,C   9,C   3,C   2)     -1.0596         0.023610   
    132. D(C  14,C   9,C   3,C   2)   -179.2322         0.023610   
    133. D(C   4,C  10,O   1,H  33)     -2.8701         0.030917   
    134. D(C  14,C  10,C   4,C  11)    179.4098         0.022198   
    135. D(C  14,C  10,C   4,C   5)     -0.7681         0.022198   
    136. D(O   1,C  10,C   4,C  11)     -0.8637         0.022198   
    137. D(O   1,C  10,C   4,C   5)    178.9584         0.022198   
    138. D(C  14,C  10,O   1,H  33)    176.8609         0.030917   
    139. D(H  24,C  11,C   4,C   5)     -4.0716         0.011622   
    140. D(H  23,C  11,C   4,C  10)     58.0196         0.011622   
    141. D(H  23,C  11,C   4,C   5)   -121.8028         0.011622   
    142. D(C  16,C  11,C   4,C  10)    -66.3715         0.011622   
    143. D(C  16,C  11,C   4,C   5)    113.8061         0.011622   
    144. D(H  26,C  12,C   6,C   7)   -172.5543         0.011501   
    145. D(H  25,C  12,C   6,C  13)    123.2419         0.011501   
    146. D(H  25,C  12,C   6,C   7)    -55.3764         0.011501   
    147. D(C  17,C  12,C   6,C  13)   -111.6087         0.011501   
    148. D(C  17,C  12,C   6,C   7)     69.7730         0.011501   
    149. D(H  27,C  13,C   6,C  12)      0.8982         0.025053   
    150. D(H  27,C  13,C   6,C   7)    179.5549         0.025053   
    151. D(C  15,C  13,C   6,C  12)   -179.9478         0.025053   
    152. D(C  15,C  13,C   6,C   7)     -1.2911         0.025053   
    153. D(H  28,C  14,C  10,C   4)   -179.1286         0.025853   
    154. D(H  28,C  14,C  10,O   1)      1.1320         0.025853   
    155. D(C   9,C  14,C  10,C   4)      0.6772         0.025853   
    156. D(C   9,C  14,C  10,O   1)   -179.0622         0.025853   
    157. D(H  28,C  14,C   9,H  22)      1.8907         0.026172   
    158. D(H  28,C  14,C   9,C   3)   -179.8656         0.026172   
    159. D(C  10,C  14,C   9,H  22)   -177.9161         0.026172   
    160. D(C  10,C  14,C   9,C   3)      0.3277         0.026172   
    161. D(C   8,C  15,C  13,C   6)      0.4845         0.026757   
    162. D(H  29,C  15,C   8,C   2)    179.9990         0.025339   
    163. D(H  29,C  15,C   8,O   0)      2.3925         0.025339   
    164. D(C  13,C  15,C   8,C   2)      1.0656         0.025339   
    165. D(C  13,C  15,C   8,O   0)   -176.5408         0.025339   
    166. D(H  29,C  15,C  13,H  27)      0.7135         0.026757   
    167. D(H  29,C  15,C  13,C   6)   -178.4565         0.026757   
    168. D(C   8,C  15,C  13,H  27)    179.6545         0.026757   
    169. D(H  30,C  16,C  11,H  23)    179.3074         0.012335   
    170. D(H  30,C  16,C  11,C   4)    -57.8512         0.012335   
    171. D(C  18,C  16,C  11,H  24)   -116.7394         0.012335   
    172. D(C  18,C  16,C  11,H  23)      0.1239         0.012335   
    173. D(C  18,C  16,C  11,C   4)    122.9652         0.012335   
    174. D(H  31,C  17,C  12,H  25)   -121.2191         0.011934   
    175. D(H  31,C  17,C  12,C   6)    113.8190         0.011934   
    176. D(C  19,C  17,C  12,H  26)    173.1172         0.011934   
    177. D(C  19,C  17,C  12,H  25)     57.3872         0.011934   
    178. D(C  19,C  17,C  12,C   6)    -67.5746         0.011934   
    179. D(H  35,C  18,C  16,H  30)   -179.4543         0.041422   
    180. D(H  35,C  18,C  16,C  11)     -0.2730         0.041422   
    181. D(H  34,C  18,C  16,H  30)      0.4310         0.041422   
    182. D(H  34,C  18,C  16,C  11)    179.6123         0.041422   
    183. D(H  37,C  19,C  17,H  31)    178.1906         0.041198   
    184. D(H  37,C  19,C  17,C  12)     -0.4149         0.041198   
    185. D(H  36,C  19,C  17,H  31)     -0.7480         0.041198   
    186. D(H  36,C  19,C  17,C  12)   -179.3535         0.041198   
    -----------------------------------------------------------------

Number of atoms                         .... 38
Number of degrees of freedom            .... 186


         *************************************************************
         *                GEOMETRY OPTIMIZATION CYCLE   1            *
         *************************************************************
---------------------------------
CARTESIAN COORDINATES (ANGSTROEM)
---------------------------------
  O      1.825144    1.120636    2.532030
  O     -3.808022   -1.991181    2.144243
  C      1.272509   -0.062199    0.458960
  C     -0.076987   -0.562646    0.898590
  C     -2.407146   -1.146378    0.352697
  C     -1.139129   -0.665208   -0.026037
  C      2.970825    0.021726   -1.325310
  C      1.708998   -0.371147   -0.850965
  C      2.152932    0.688764    1.294322
  C     -0.314039   -0.981084    2.221359
  C     -2.616924   -1.538928    1.696412
  C     -3.499854   -1.221528   -0.693206
  C      3.437623   -0.329123   -2.724290
  C      3.822780    0.729525   -0.469364
  C     -1.565245   -1.457347    2.610439
  C      3.414282    1.060563    0.818801
  C     -3.882415   -2.650847   -0.973713
  C      2.696475    0.411654   -3.812459
  C     -5.134833   -3.095770   -0.835128
  C      1.405233    0.226957   -4.105875
  H     -0.991235   -0.354045   -1.051545
  H      1.080921   -0.960571   -1.496352
  H      0.469754   -0.973732    2.964748
  H     -4.369318   -0.611040   -0.365184
  H     -3.145882   -0.795618   -1.656548
  H      3.383295   -1.426699   -2.887335
  H      4.505241   -0.036640   -2.828936
  H      4.805518    1.041304   -0.801065
  H     -1.717898   -1.770110    3.636133
  H      4.082451    1.630553    1.452892
  H     -3.113801   -3.339384   -1.313031
  H      3.255772    1.126149   -4.410191
  H      0.935586    1.111802    2.902719
  H     -4.604302   -2.042692    1.602628
  H     -5.368769   -4.132491   -1.053945
  H     -5.933096   -2.437169   -0.506984
  H      0.952351    0.794800   -4.912159
  H      0.786271   -0.484868   -3.579589

----------------------------
CARTESIAN COORDINATES (A.U.)
----------------------------
  NO LB      ZA    FRAG     MASS         X           Y           Z
   0 O     8.0000    0    15.999    3.449023    2.117695    4.784843
   1 O     8.0000    0    15.999   -7.196119   -3.762788    4.052032
   2 C     6.0000    0    12.011    2.404693   -0.117540    0.867309
   3 C     6.0000    0    12.011   -0.145485   -1.063247    1.698088
   4 C     6.0000    0    12.011   -4.548847   -2.166340    0.666501
   5 C     6.0000    0    12.011   -2.152641   -1.257061   -0.049203
   6 C     6.0000    0    12.011    5.614045    0.041057   -2.504474
   7 C     6.0000    0    12.011    3.229538   -0.701367   -1.608091
   8 C     6.0000    0    12.011    4.068453    1.301575    2.445915
   9 C     6.0000    0    12.011   -0.593448   -1.853980    4.197759
  10 C     6.0000    0    12.011   -4.945270   -2.908153    3.205753
  11 C     6.0000    0    12.011   -6.613767   -2.308352   -1.309969
  12 C     6.0000    0    12.011    6.496165   -0.621953   -5.148161
  13 C     6.0000    0    12.011    7.224006    1.378602   -0.886969
  14 C     6.0000    0    12.011   -2.957884   -2.753987    4.933015
  15 C     6.0000    0    12.011    6.452058    2.004174    1.547311
  16 C     6.0000    0    12.011   -7.336700   -5.009375   -1.840051
  17 C     6.0000    0    12.011    5.095599    0.777913   -7.204503
  18 C     6.0000    0    12.011   -9.703428   -5.850157   -1.578164
  19 C     6.0000    0    12.011    2.655505    0.428886   -7.758979
  20 H     1.0000    0     1.008   -1.873162   -0.669048   -1.987132
  21 H     1.0000    0     1.008    2.042644   -1.815216   -2.827696
  22 H     1.0000    0     1.008    0.887705   -1.840086    5.602561
  23 H     1.0000    0     1.008   -8.256815   -1.154697   -0.690098
  24 H     1.0000    0     1.008   -5.944855   -1.503499   -3.130421
  25 H     1.0000    0     1.008    6.393500   -2.696069   -5.456272
  26 H     1.0000    0     1.008    8.513671   -0.069240   -5.345913
  27 H     1.0000    0     1.008    9.081113    1.967779   -1.513794
  28 H     1.0000    0     1.008   -3.246356   -3.345022    6.871295
  29 H     1.0000    0     1.008    7.714714    3.081298    2.745569
  30 H     1.0000    0     1.008   -5.884231   -6.310521   -2.481269
  31 H     1.0000    0     1.008    6.152517    2.128114   -8.334053
  32 H     1.0000    0     1.008    1.768002    2.101002    5.485344
  33 H     1.0000    0     1.008   -8.700869   -3.860129    3.028529
  34 H     1.0000    0     1.008  -10.145503   -7.809275   -1.991667
  35 H     1.0000    0     1.008  -11.211926   -4.605581   -0.958060
  36 H     1.0000    0     1.008    1.799682    1.501954   -9.282635
  37 H     1.0000    0     1.008    1.485837   -0.916267   -6.764443

--------------------------------
INTERNAL COORDINATES (ANGSTROEM)
--------------------------------
 O      0   0   0     0.000000000000     0.00000000     0.00000000
 O      1   0   0     6.447197224831     0.00000000     0.00000000
 C      1   2   0     2.449923270641    61.24801476     0.00000000
 C      3   1   2     1.504945620266    96.64019083     0.48829195
 C      2   1   3     2.426063600413    51.08427682   337.15999976
 C      5   2   1     1.408130733036   146.88531923    15.60529001
 C      3   1   2     2.464739551772   116.14817862   180.73756437
 C      7   3   1     1.404122489905    29.15560098   182.80027682
 C      1   2   3     1.351250830908    90.14870831   357.56021108
 C      4   3   1     1.407480481449   121.62977332   322.87890454
 C      2   1   3     1.350481553445    24.17344827   358.04812859
 C      5   2   1     1.514454017212    94.36353901   196.54241894
 C      7   3   1     1.515961200205   150.73257741   181.39543617
 C      7   3   1     1.399803744145    89.65209836     3.29525987
 C     10   4   3     1.394175640831   120.99673756   180.76780347
 C     14   7   3     1.391339751098   120.51382011   358.98410950
 C     12   5   2     1.505985252657   111.03974567   293.22219219
 C     13   7   3     1.510683168555   113.58920328    70.57635363
 C     17  12   5     1.336305974187   122.32784417   122.96523389
 C     18  13   7     1.336978874446   124.34414320   292.42537569
 H      6   5   2     1.081832458095   118.44711116   181.75323820
 H      8   7   3     1.076302205465   118.36404390   182.68037765
 H     10   4   3     1.080283401403   121.50038751   358.94038501
 H     12   5   2     1.111872752235   109.46474907    57.61327881
 H     12   5   2     1.111181251779   110.47911241   175.34451847
 H     13   7   3     1.110948464409   110.42801166   305.42693491
 H     13   7   3     1.111892988332   108.76176522   188.24909790
 H     14   7   3     1.083054356466   120.69962867   179.83011606
 H     15  10   4     1.083129865219   119.30136194   180.13444048
 H     16  14   7     1.083239992496   119.08147661   181.54345815
 H     17  12   5     1.086271932453   118.68711783   302.14882082
 H     18  13   7     1.086554210101   117.78613537   113.81901772
 H      1   2   3     0.963743837974    38.02235455   155.59349152
 H      2   1   3     0.964396678199   141.35089196   304.68501412
 H     19  17  12     1.085079108208   119.95085111   179.61233024
 H     19  17  12     1.085659865579   121.23085898   359.72701456
 H     20  18  13     1.085191932386   119.59219924   180.64653754
 H     20  18  13     1.080177977347   122.51534460   359.58509938

---------------------------
INTERNAL COORDINATES (A.U.)
---------------------------
 O      0   0   0     0.000000000000     0.00000000     0.00000000
 O      1   0   0    12.183437086308     0.00000000     0.00000000
 C      1   2   0     4.629684030632    61.24801476     0.00000000
 C      3   1   2     2.843935068747    96.64019083     0.48829195
 C      2   1   3     4.584595788255    51.08427682   337.15999976
 C      5   2   1     2.660981446195   146.88531923    15.60529001
 C      3   1   2     4.657682744293   116.14817862   180.73756437
 C      7   3   1     2.653406964399    29.15560098   182.80027682
 C      1   2   3     2.553494008649    90.14870831   357.56021108
 C      4   3   1     2.659752648779   121.62977332   322.87890454
 C      2   1   3     2.552040284923    24.17344827   358.04812859
 C      5   2   1     2.861903334948    94.36353901   196.54241894
 C      7   3   1     2.864751498037   150.73257741   181.39543617
 C      7   3   1     2.645245717671    89.65209836     3.29525987
 C     10   4   3     2.634610143755   120.99673756   180.76780347
 C     14   7   3     2.629251088814   120.51382011   358.98410950
 C     12   5   2     2.845899689246   111.03974567   293.22219219
 C     13   7   3     2.854777463694   113.58920328    70.57635363
 C     17  12   5     2.525252322337   122.32784417   122.96523389
 C     18  13   7     2.526523919542   124.34414320   292.42537569
 H      6   5   2     2.044367068587   118.44711116   181.75323820
 H      8   7   3     2.033916405664   118.36404390   182.68037765
 H     10   4   3     2.041439775672   121.50038751   358.94038501
 H     12   5   2     2.101134997493   109.46474907    57.61327881
 H     12   5   2     2.099828251009   110.47911241   175.34451847
 H     13   7   3     2.099388346634   110.42801166   305.42693491
 H     13   7   3     2.101173238175   108.76176522   188.24909790
 H     14   7   3     2.046676121870   120.69962867   179.83011606
 H     15  10   4     2.046818812734   119.30136194   180.13444048
 H     16  14   7     2.047026923129   119.08147661   181.54345815
 H     17  12   5     2.052756459301   118.68711783   302.14882082
 H     18  13   7     2.053289886750   117.78613537   113.81901772
 H      1   2   3     1.821211917024    38.02235455   155.59349152
 H      2   1   3     1.822445606259   141.35089196   304.68501412
 H     19  17  12     2.050502348153   119.95085111   179.61233024
 H     19  17  12     2.051599820533   121.23085898   359.72701456
 H     20  18  13     2.050715554950   119.59219924   180.64653754
 H     20  18  13     2.041240553080   122.51534460   359.58509938

---------------------
BASIS SET INFORMATION
---------------------
There are 3 groups of distinct atoms

 Group   1 Type O   : 11s6p2d1f contracted to 5s3p2d1f pattern {62111/411/11/1}
 Group   2 Type C   : 11s6p2d1f contracted to 5s3p2d1f pattern {62111/411/11/1}
 Group   3 Type H   : 5s1p contracted to 3s1p pattern {311/1}

Atom   0O    basis set group =>   1
Atom   1O    basis set group =>   1
Atom   2C    basis set group =>   2
Atom   3C    basis set group =>   2
Atom   4C    basis set group =>   2
Atom   5C    basis set group =>   2
Atom   6C    basis set group =>   2
Atom   7C    basis set group =>   2
Atom   8C    basis set group =>   2
Atom   9C    basis set group =>   2
Atom  10C    basis set group =>   2
Atom  11C    basis set group =>   2
Atom  12C    basis set group =>   2
Atom  13C    basis set group =>   2
Atom  14C    basis set group =>   2
Atom  15C    basis set group =>   2
Atom  16C    basis set group =>   2
Atom  17C    basis set group =>   2
Atom  18C    basis set group =>   2
Atom  19C    basis set group =>   2
Atom  20H    basis set group =>   3
Atom  21H    basis set group =>   3
Atom  22H    basis set group =>   3
Atom  23H    basis set group =>   3
Atom  24H    basis set group =>   3
Atom  25H    basis set group =>   3
Atom  26H    basis set group =>   3
Atom  27H    basis set group =>   3
Atom  28H    basis set group =>   3
Atom  29H    basis set group =>   3
Atom  30H    basis set group =>   3
Atom  31H    basis set group =>   3
Atom  32H    basis set group =>   3
Atom  33H    basis set group =>   3
Atom  34H    basis set group =>   3
Atom  35H    basis set group =>   3
Atom  36H    basis set group =>   3
Atom  37H    basis set group =>   3
---------------------------------
AUXILIARY/J BASIS SET INFORMATION
---------------------------------
There are 3 groups of distinct atoms

 Group   1 Type O   : 12s5p4d2f1g contracted to 6s4p3d1f1g pattern {711111/2111/211/2/1}
 Group   2 Type C   : 12s5p4d2f1g contracted to 6s4p3d1f1g pattern {711111/2111/211/2/1}
 Group   3 Type H   : 5s2p1d contracted to 3s1p1d pattern {311/2/1}

Atom   0O    basis set group =>   1
Atom   1O    basis set group =>   1
Atom   2C    basis set group =>   2
Atom   3C    basis set group =>   2
Atom   4C    basis set group =>   2
Atom   5C    basis set group =>   2
Atom   6C    basis set group =>   2
Atom   7C    basis set group =>   2
Atom   8C    basis set group =>   2
Atom   9C    basis set group =>   2
Atom  10C    basis set group =>   2
Atom  11C    basis set group =>   2
Atom  12C    basis set group =>   2
Atom  13C    basis set group =>   2
Atom  14C    basis set group =>   2
Atom  15C    basis set group =>   2
Atom  16C    basis set group =>   2
Atom  17C    basis set group =>   2
Atom  18C    basis set group =>   2
Atom  19C    basis set group =>   2
Atom  20H    basis set group =>   3
Atom  21H    basis set group =>   3
Atom  22H    basis set group =>   3
Atom  23H    basis set group =>   3
Atom  24H    basis set group =>   3
Atom  25H    basis set group =>   3
Atom  26H    basis set group =>   3
Atom  27H    basis set group =>   3
Atom  28H    basis set group =>   3
Atom  29H    basis set group =>   3
Atom  30H    basis set group =>   3
Atom  31H    basis set group =>   3
Atom  32H    basis set group =>   3
Atom  33H    basis set group =>   3
Atom  34H    basis set group =>   3
Atom  35H    basis set group =>   3
Atom  36H    basis set group =>   3
Atom  37H    basis set group =>   3


           ************************************************************
           *        Program running with 20 parallel MPI-processes    *
           *              working on a common directory               *
           ************************************************************
------------------------------------------------------------------------------
                             ORCA STARTUP CALCULATIONS
                           -- RI-GTO INTEGRALS CHOSEN --
------------------------------------------------------------------------------
------------------------------------------------------------------------------
                   ___                                                        
                  /   \      - P O W E R E D   B Y -                         
                 /     \                                                     
                 |  |  |   _    _      __       _____    __    __             
                 |  |  |  | |  | |    /  \     |  _  \  |  |  /  |          
                  \  \/   | |  | |   /    \    | | | |  |  | /  /          
                 / \  \   | |__| |  /  /\  \   | |_| |  |  |/  /          
                |  |  |   |  __  | /  /__\  \  |    /   |      \           
                |  |  |   | |  | | |   __   |  |    \   |  |\   \          
                \     /   | |  | | |  |  |  |  | |\  \  |  | \   \       
                 \___/    |_|  |_| |__|  |__|  |_| \__\ |__|  \__/        
                                                                              
                      - O R C A' S   B I G   F R I E N D -                    
                                      &                                       
                       - I N T E G R A L  F E E D E R -                       
                                                                              
 v1 FN, 2020, v2 2021, v3 2022-2024                                           
------------------------------------------------------------------------------


----------------------
SHARK INTEGRAL PACKAGE
----------------------

Number of atoms                             ...     38
Number of basis functions                   ...    728
Number of shells                            ...    292
Maximum angular momentum                    ...      3
Integral batch strategy                     ... SHARK/LIBINT Hybrid
RI-J (if used) integral strategy            ... SPLIT-RIJ (Revised 2003 algorithm where possible)
Printlevel                                  ...      1
Contraction scheme used                     ... SEGMENTED contraction
Prescreening option                         ... SCHWARTZ
   Thresh                                   ... 2.500e-11
   Tcut                                     ... 2.500e-12
   Tpresel                                  ... 2.500e-12 
Coulomb Range Separation                    ... NOT USED
Exchange Range Separation                   ... NOT USED
Multipole approximations                    ... NOT USED
Finite Nucleus Model                        ... NOT USED
CABS basis                                  ... NOT available
Auxiliary Coulomb fitting basis             ... AVAILABLE
   # of basis functions in Aux-J            ...   1178
   # of shells in Aux-J                     ...    390
   Maximum angular momentum in Aux-J        ...      4
Auxiliary J/K fitting basis                 ... NOT available
Auxiliary Correlation fitting basis         ... NOT available
Auxiliary 'external' fitting basis          ... NOT available

Checking pre-screening integrals            ... done (  0.0 sec) Dimension = 292
Check shell pair data                       ... done (  0.0 sec)
Shell pair information
Shell pair cut-off parameter TPreSel        ...   2.5e-12
Total number of shell pairs                 ...     42778
Shell pairs after pre-screening             ...     29860
Total number of primitive shell pairs       ...    129780
Primitive shell pairs kept                  ...     61166
          la=0 lb=0:   8074 shell pairs
          la=1 lb=0:   8712 shell pairs
          la=1 lb=1:   2373 shell pairs
          la=2 lb=0:   4176 shell pairs
          la=2 lb=1:   2275 shell pairs
          la=2 lb=2:    567 shell pairs
          la=3 lb=0:   1957 shell pairs
          la=3 lb=1:   1085 shell pairs
          la=3 lb=2:    509 shell pairs
          la=3 lb=3:    132 shell pairs

Calculating one electron integrals          ... done (  0.0 sec)
Calculating RI/J V-Matrix + Cholesky decomp.... done (  0.1 sec)
Calculating Nuclear repulsion               ... done (  0.0 sec) ENN=   1418.012253356941 Eh

Diagonalization of the overlap matrix:
Smallest eigenvalue                        ... 6.982e-06
Time for diagonalization                   ...    0.067 sec
Threshold for overlap eigenvalues          ... 1.000e-07
Number of eigenvalues below threshold      ... 0
Time for construction of square roots      ...    0.030 sec
Total time needed                          ...    0.101 sec

-------------------
DFT GRID GENERATION
-------------------

General Integration Accuracy     IntAcc      ... 4.388
Radial Grid Type                 RadialGrid  ... OptM3 with GC (2021)
Angular Grid (max. ang.)         AngularGrid ... 4 (Lebedev-302)
Angular grid pruning method      GridPruning ... 4 (adaptive)
Weight generation scheme         WeightScheme... mBecke (2022)
Basis function cutoff            BFCut       ... 1.0000e-11
Integration weight cutoff        WCut        ... 1.0000e-14
Partially contracted basis set               ... off
Rotationally invariant grid construction     ... off
Angular grids for H and He will be reduced by one unit

Total number of grid points                  ...   177078
Total number of batches                      ...     2785
Average number of points per batch           ...       63
Average number of grid points per atom       ...     4660

--------------------
COSX GRID GENERATION
--------------------

GRIDX 1
-------
General Integration Accuracy     IntAcc      ... 3.816
Radial Grid Type                 RadialGrid  ... OptM3 with GC (2021)
Angular Grid (max. ang.)         AngularGrid ... 1 (Lebedev-50)
Angular grid pruning method      GridPruning ... 4 (adaptive)
Weight generation scheme         WeightScheme... mBecke (2022)
Basis function cutoff            BFCut       ... 1.0000e-11
Integration weight cutoff        WCut        ... 1.0000e-14
Partially contracted basis set               ... on
Rotationally invariant grid construction     ... off
Angular grids for H and He will be reduced by one unit

Total number of grid points                  ...    22456
Total number of batches                      ...      198
Average number of points per batch           ...      113
Average number of grid points per atom       ...      591
UseSFitting                                  ... on

GRIDX 2
-------
General Integration Accuracy     IntAcc      ... 4.020
Radial Grid Type                 RadialGrid  ... OptM3 with GC (2021)
Angular Grid (max. ang.)         AngularGrid ... 2 (Lebedev-110)
Angular grid pruning method      GridPruning ... 4 (adaptive)
Weight generation scheme         WeightScheme... mBecke (2022)
Basis function cutoff            BFCut       ... 1.0000e-11
Integration weight cutoff        WCut        ... 1.0000e-14
Partially contracted basis set               ... on
Rotationally invariant grid construction     ... off
Angular grids for H and He will be reduced by one unit

Total number of grid points                  ...    48518
Total number of batches                      ...      396
Average number of points per batch           ...      122
Average number of grid points per atom       ...     1277
UseSFitting                                  ... on

GRIDX 3
-------
General Integration Accuracy     IntAcc      ... 4.338
Radial Grid Type                 RadialGrid  ... OptM3 with GC (2021)
Angular Grid (max. ang.)         AngularGrid ... 3 (Lebedev-194)
Angular grid pruning method      GridPruning ... 4 (adaptive)
Weight generation scheme         WeightScheme... mBecke (2022)
Basis function cutoff            BFCut       ... 1.0000e-11
Integration weight cutoff        WCut        ... 1.0000e-14
Partially contracted basis set               ... on
Rotationally invariant grid construction     ... off
Angular grids for H and He will be reduced by one unit

Total number of grid points                  ...   106074
Total number of batches                      ...      848
Average number of points per batch           ...      125
Average number of grid points per atom       ...     2791
UseSFitting                                  ... on
Initializing property integral containers    ... done (  0.0 sec)

SHARK setup successfully completed in   2.1 seconds

Maximum memory used throughout the entire STARTUP-calculation: 70.8 MB


           ************************************************************
           *        Program running with 20 parallel MPI-processes    *
           *              working on a common directory               *
           ************************************************************
-------------------------------------------------------------------------------
                                 ORCA GUESS
                   Start orbitals & Density for SCF / CASSCF
-------------------------------------------------------------------------------

------------
SCF SETTINGS
------------
Hamiltonian:
 Density Functional     Method          .... DFT(GTOs)
 Exchange Functional    Exchange        .... B88
   X-Alpha parameter    XAlpha          ....  0.666667
   Becke's b parameter  XBeta           ....  0.004200
 Correlation Functional Correlation     .... LYP
 LDA part of GGA corr.  LDAOpt          .... VWN-5
 Gradients option       PostSCFGGA      .... off
 Hybrid DFT is turned on
   Fraction HF Exchange ScalHFX         ....  0.200000
   Scaling of DF-GGA-X  ScalDFX         ....  0.720000
   Scaling of DF-GGA-C  ScalDFC         ....  0.810000
   Scaling of DF-LDA-C  ScalLDAC        ....  1.000000
   Perturbative correction              ....  0.000000
   NL short-range parameter             ....  4.800000
 RI-approximation to the Coulomb term is turned on
   Number of AuxJ basis functions       .... 1178
   RIJ-COSX (HFX calculated with COS-X)).... on


General Settings:
 Integral files         IntName         .... honokiol3
 Hartree-Fock type      HFTyp           .... RHF
 Total Charge           Charge          ....    0
 Multiplicity           Mult            ....    1
 Number of Electrons    NEL             ....  142
 Basis Dimension        Dim             ....  728
 Nuclear Repulsion      ENuc            ....   1418.0122533569 Eh

Convergence Acceleration:
 AO-DIIS                CNVDIIS         .... on
   Start iteration      DIISMaxIt       ....    12
   Startup error        DIISStart       ....  0.200000
   # of expansion vecs  DIISMaxEq       ....     5
   Bias factor          DIISBfac        ....   1.050
   Max. coefficient     DIISMaxC        ....  10.000
 MO-DIIS                CNVKDIIS        .... off
 Trust-Rad. Augm. Hess. CNVTRAH         .... auto
   Auto Start mean grad. ratio tolernc. ....  1.125000
   Auto Start start iteration           ....    50
   Auto Start num. interpolation iter.  ....    10
   Max. Number of Micro iterations      ....    24
   Max. Number of Macro iterations      .... Maxiter - #DIIS iter
   Number of Davidson start vectors     ....     2
   Converg. threshold    (grad. norm)   ....   1.000e-05
   Grad. Scal. Fac. for Micro threshold ....   0.100
   Minimum threshold for Micro iter.    ....   1.000e-02
   NR start threshold (gradient norm)   ....   1.000e-04
   Initial trust radius                 ....   0.400
   Minimum AH scaling param. (alpha)    ....   1.000
   Maximum AH scaling param. (alpha)    .... 1000.000
   Quad. conv. algorithm                .... NR
   White noise on init. David. guess    .... on
   Maximum white noise                  ....   0.010
   Pseudo random numbers                .... off
   Inactive MOs                         .... canonical
   Orbital update algorithm             .... Taylor
   Preconditioner                       .... Diag
   Full preconditioner red. dimension   ....   250
 SOSCF                  CNVSOSCF        .... on
   Start iteration      SOSCFMaxIt      ....   150
   Startup grad/error   SOSCFStart      ....  0.003300
   Hessian update       SOSCFHessUp     .... L-BFGS
 Level Shifting         CNVShift        .... on
   Level shift para.    LevelShift      ....    0.2500
   Turn off err/grad.   ShiftErr        ....    0.0010
 Zerner damping         CNVZerner       .... off
 Static damping         CNVDamp         .... on
   Fraction old density DampFac         ....    0.7000
   Max. Damping (<1)    DampMax         ....    0.9800
   Min. Damping (>=0)   DampMin         ....    0.0000
   Turn off err/grad.   DampErr         ....    0.1000

SCF Procedure:
 Maximum # iterations   MaxIter         ....   125
 SCF integral mode      SCFMode         .... Direct
   Integral package                     .... SHARK and LIBINT hybrid scheme
 Reset frequency        DirectResetFreq ....    20
 Integral Threshold     Thresh          ....  2.500e-11 Eh
 Primitive CutOff       TCut            ....  2.500e-12 Eh

Convergence Tolerance:
 Convergence Check Mode ConvCheckMode   .... Total+1el-Energy
 Convergence forced     ConvForced      .... 0
 Energy Change          TolE            ....  1.000e-08 Eh
 1-El. energy change                    ....  1.000e-05 Eh
 Orbital Gradient       TolG            ....  1.000e-05
 Orbital Rotation angle TolX            ....  1.000e-05
 DIIS Error             TolErr          ....  5.000e-07

------------------------------
INITIAL GUESS: MODEL POTENTIAL
------------------------------
Loading Hartree-Fock densities                     ... done
Calculating cut-offs                               ... done
Initializing the effective Hamiltonian             ... done
Setting up the integral package (SHARK)            ... done
Starting the Coulomb interaction                   ... done (   0.1 sec)
Making the grid                                    ... done (   0.2 sec)
Mapping shells                                     ... done
Starting the XC term evaluation                    ... done (   0.1 sec)
  promolecular density results
     # of electrons  =    141.999501538
     EX              =   -114.268654822
     EC              =     -4.772115174
     EX+EC           =   -119.040769995
Transforming the Hamiltonian                       ... done (   0.0 sec)
Diagonalizing the Hamiltonian                      ... done (   0.1 sec)
Back transforming the eigenvectors                 ... done (   0.0 sec)
Now organizing SCF variables                       ... done
                      ------------------
                      INITIAL GUESS DONE (   0.6 sec)
                      ------------------
             **** ENERGY FILE WAS UPDATED (honokiol3.en.tmp) ****
Finished Guess after   1.2 sec
Maximum memory used throughout the entire GUESS-calculation: 55.3 MB


           ************************************************************
           *        Program running with 20 parallel MPI-processes    *
           *              working on a common directory               *
           ************************************************************

-------------------------------------------------------------------------------------------
                                      ORCA LEAN-SCF
                              memory conserving SCF solver
-------------------------------------------------------------------------------------------

----------------------------------------D-I-I-S--------------------------------------------
Iteration    Energy (Eh)           Delta-E    RMSDP     MaxDP     DIISErr   Damp  Time(sec)
-------------------------------------------------------------------------------------------
               ***  Starting incremental Fock matrix formation  ***
    1    -846.3925731143422126     0.00e+00  1.56e-03  1.25e-01  2.43e-01  0.700   3.5
    2    -846.6409942512027555    -2.48e-01  1.36e-03  1.34e-01  1.09e-01  0.700   2.2
                               ***Turning on AO-DIIS***
    3    -846.7473390357445169    -1.06e-01  4.94e-04  3.38e-02  3.79e-02  0.700   2.0
    4    -846.8087692525850798    -6.14e-02  7.33e-04  4.30e-02  2.19e-02  0.000   2.0
    5    -846.9408541466145834    -1.32e-01  2.91e-04  2.89e-02  5.04e-03  0.000   2.0
                              *** Initializing SOSCF ***
---------------------------------------S-O-S-C-F--------------------------------------
Iteration    Energy (Eh)           Delta-E    RMSDP     MaxDP     MaxGrad    Time(sec)
--------------------------------------------------------------------------------------
    6    -846.9415082185546453    -6.54e-04  9.66e-05  8.71e-03  1.45e-03     2.0
               *** Restarting incremental Fock matrix formation ***
    7    -846.9415722473941059    -6.40e-05  8.32e-05  6.23e-03  2.57e-04     3.5
    8    -846.9415643965367053     7.85e-06  1.72e-05  1.52e-03  5.80e-04     2.6
    9    -846.9415784796774460    -1.41e-05  1.34e-05  1.26e-03  4.96e-05     2.3
   10    -846.9415782754927022     2.04e-07  5.49e-06  7.42e-04  7.80e-05     2.2
   11    -846.9415787172729324    -4.42e-07  3.32e-06  2.26e-04  1.85e-05     1.9
   12    -846.9415786980480334     1.92e-08  1.47e-06  6.07e-05  2.45e-05     1.9
   13    -846.9415787122834445    -1.42e-08  2.22e-06  1.91e-04  2.87e-06     1.7
   14    -846.9415787178409118    -5.56e-09  8.42e-07  4.35e-05  5.05e-06     1.6
                 **** Energy Check signals convergence ****

               *****************************************************
               *                     SUCCESS                       *
               *           SCF CONVERGED AFTER  14 CYCLES          *
               *****************************************************

Recomputing exchange energy using gridx3       ... done (    5.345 sec)
Old exchange energy                            :    -23.233362323 Eh
New exchange energy                            :    -23.233389948 Eh
Exchange energy change after final integration :     -0.000027625 Eh
Total energy after final integration           :   -846.941606343 Eh
             **** ENERGY FILE WAS UPDATED (honokiol3.en.tmp) ****

----------------
TOTAL SCF ENERGY
----------------

Total Energy       :       -846.94160634251170 Eh          -23046.45277 eV

Components:
Nuclear Repulsion  :       1418.01225335694107 Eh           38586.07509 eV
Electronic Energy  :      -2264.95383207478199 Eh          -61632.52711 eV
One Electron Energy:      -3964.17919526437072 Eh         -107870.79995 eV
Two Electron Energy:       1699.22536318958873 Eh           46238.27284 eV

Virial components:
Potential Energy   :      -1689.64348471070662 Eh          -45977.53667 eV
Kinetic Energy     :        842.70187836819480 Eh           22931.08390 eV
Virial Ratio       :          2.00503111252407

DFT components:
N(Alpha)           :       70.999971760775 electrons
N(Beta)            :       70.999971760775 electrons
N(Total)           :      141.999943521551 electrons
E(X)               :      -92.306887698466 Eh       
E(C)               :       -5.635383362880 Eh       
E(XC)              :      -97.942271061346 Eh       

---------------
SCF CONVERGENCE
---------------

  Last Energy change         ...    5.5575e-09  Tolerance :   1.0000e-08
  Last MAX-Density change    ...    4.3485e-05  Tolerance :   1.0000e-07
  Last RMS-Density change    ...    8.4217e-07  Tolerance :   5.0000e-09
  Last DIIS Error            ...    1.4499e-03  Tolerance :   5.0000e-07
  Last Orbital Gradient      ...    5.0512e-06  Tolerance :   1.0000e-05
  Last Orbital Rotation      ...    9.5292e-06  Tolerance :   1.0000e-05


----------------
ORBITAL ENERGIES
----------------

  NO   OCC          E(Eh)            E(eV) 
   0   2.0000     -19.155659      -521.2520 
   1   2.0000     -19.146792      -521.0107 
   2   2.0000     -10.243040      -278.7273 
   3   2.0000     -10.235996      -278.5356 
   4   2.0000     -10.195089      -277.4225 
   5   2.0000     -10.190491      -277.2974 
   6   2.0000     -10.189167      -277.2613 
   7   2.0000     -10.187410      -277.2135 
   8   2.0000     -10.184808      -277.1427 
   9   2.0000     -10.179550      -276.9996 
  10   2.0000     -10.178974      -276.9840 
  11   2.0000     -10.176346      -276.9124 
  12   2.0000     -10.176022      -276.9036 
  13   2.0000     -10.174545      -276.8634 
  14   2.0000     -10.173587      -276.8374 
  15   2.0000     -10.173310      -276.8298 
  16   2.0000     -10.169403      -276.7235 
  17   2.0000     -10.167403      -276.6691 
  18   2.0000     -10.164198      -276.5819 
  19   2.0000     -10.159856      -276.4637 
  20   2.0000      -1.063497       -28.9392 
  21   2.0000      -1.054997       -28.7079 
  22   2.0000      -0.864913       -23.5355 
  23   2.0000      -0.847650       -23.0657 
  24   2.0000      -0.815467       -22.1900 
  25   2.0000      -0.795448       -21.6452 
  26   2.0000      -0.770988       -20.9797 
  27   2.0000      -0.758413       -20.6375 
  28   2.0000      -0.740144       -20.1403 
  29   2.0000      -0.721335       -19.6285 
  30   2.0000      -0.690911       -18.8006 
  31   2.0000      -0.678459       -18.4618 
  32   2.0000      -0.639551       -17.4031 
  33   2.0000      -0.618288       -16.8245 
  34   2.0000      -0.601206       -16.3597 
  35   2.0000      -0.593482       -16.1495 
  36   2.0000      -0.572631       -15.5821 
  37   2.0000      -0.560158       -15.2427 
  38   2.0000      -0.551045       -14.9947 
  39   2.0000      -0.541167       -14.7259 
  40   2.0000      -0.496611       -13.5135 
  41   2.0000      -0.484073       -13.1723 
  42   2.0000      -0.482227       -13.1221 
  43   2.0000      -0.465768       -12.6742 
  44   2.0000      -0.455181       -12.3861 
  45   2.0000      -0.449731       -12.2378 
  46   2.0000      -0.448146       -12.1947 
  47   2.0000      -0.442202       -12.0329 
  48   2.0000      -0.434847       -11.8328 
  49   2.0000      -0.427765       -11.6401 
  50   2.0000      -0.419417       -11.4129 
  51   2.0000      -0.413360       -11.2481 
  52   2.0000      -0.406891       -11.0721 
  53   2.0000      -0.398022       -10.8307 
  54   2.0000      -0.391567       -10.6551 
  55   2.0000      -0.382054       -10.3962 
  56   2.0000      -0.375217       -10.2102 
  57   2.0000      -0.372568       -10.1381 
  58   2.0000      -0.360396        -9.8069 
  59   2.0000      -0.353417        -9.6170 
  60   2.0000      -0.348295        -9.4776 
  61   2.0000      -0.343977        -9.3601 
  62   2.0000      -0.337483        -9.1834 
  63   2.0000      -0.328815        -8.9475 
  64   2.0000      -0.317706        -8.6452 
  65   2.0000      -0.277163        -7.5420 
  66   2.0000      -0.263142        -7.1605 
  67   2.0000      -0.259074        -7.0498 
  68   2.0000      -0.255113        -6.9420 
  69   2.0000      -0.225524        -6.1368 
  70   2.0000      -0.204908        -5.5758 
  71   0.0000      -0.032866        -0.8943 
  72   0.0000      -0.027415        -0.7460 
  73   0.0000      -0.012717        -0.3460 
  74   0.0000      -0.003946        -0.1074 
  75   0.0000       0.011758         0.3200 
  76   0.0000       0.020869         0.5679 
  77   0.0000       0.027578         0.7504 
  78   0.0000       0.040426         1.1001 
  79   0.0000       0.042236         1.1493 
  80   0.0000       0.050867         1.3842 
  81   0.0000       0.066218         1.8019 
*Only the first 10 virtual orbitals were printed.

                    ********************************
                    * MULLIKEN POPULATION ANALYSIS *
                    ********************************

-----------------------
MULLIKEN ATOMIC CHARGES
-----------------------
   0 O :   -0.433707
   1 O :   -0.407581
   2 C :    0.081734
   3 C :    0.101927
   4 C :    0.126564
   5 C :   -0.282573
   6 C :    0.189164
   7 C :   -0.266395
   8 C :    0.226862
   9 C :   -0.273089
  10 C :    0.241795
  11 C :   -0.305779
  12 C :   -0.211758
  13 C :   -0.151463
  14 C :   -0.192033
  15 C :   -0.201467
  16 C :   -0.085325
  17 C :   -0.102980
  18 C :   -0.280904
  19 C :   -0.241365
  20 H :    0.131330
  21 H :    0.131309
  22 H :    0.154809
  23 H :    0.133326
  24 H :    0.116219
  25 H :    0.107957
  26 H :    0.098320
  27 H :    0.095584
  28 H :    0.109948
  29 H :    0.104873
  30 H :    0.116902
  31 H :    0.100717
  32 H :    0.327791
  33 H :    0.320444
  34 H :    0.115424
  35 H :    0.109761
  36 H :    0.106693
  37 H :    0.086966
Sum of atomic charges:    0.0000000

--------------------------------
MULLIKEN REDUCED ORBITAL CHARGES
--------------------------------
  0 O s       :     3.739089  s :     3.739089
      pz      :     1.446087  p :     4.664734
      px      :     1.426403
      py      :     1.792244
      dz2     :     0.008781  d :     0.027872
      dxz     :     0.005361
      dyz     :     0.006058
      dx2y2   :     0.005914
      dxy     :     0.001758
      f0      :     0.000429  f :     0.002012
      f+1     :     0.000331
      f-1     :     0.000332
      f+2     :     0.000407
      f-2     :     0.000183
      f+3     :     0.000280
      f-3     :     0.000050

  1 O s       :     3.733576  s :     3.733576
      pz      :     1.639677  p :     4.643979
      px      :     1.233962
      py      :     1.770340
      dz2     :     0.003074  d :     0.028028
      dxz     :     0.011956
      dyz     :     0.003058
      dx2y2   :     0.005295
      dxy     :     0.004644
      f0      :     0.000146  f :     0.001999
      f+1     :     0.000239
      f-1     :     0.000030
      f+2     :     0.000520
      f-2     :     0.000138
      f+3     :     0.000509
      f-3     :     0.000417

  2 C s       :     3.256286  s :     3.256286
      pz      :     0.857766  p :     2.546798
      px      :     0.718559
      py      :     0.970473
      dz2     :     0.019668  d :     0.105810
      dxz     :     0.029407
      dyz     :     0.018545
      dx2y2   :     0.017458
      dxy     :     0.020732
      f0      :     0.001559  f :     0.009370
      f+1     :     0.001700
      f-1     :     0.001251
      f+2     :     0.001429
      f-2     :     0.001191
      f+3     :     0.001233
      f-3     :     0.001007

  3 C s       :     3.252486  s :     3.252486
      pz      :     0.833496  p :     2.516328
      px      :     0.737952
      py      :     0.944880
      dz2     :     0.028265  d :     0.119714
      dxz     :     0.028803
      dyz     :     0.022223
      dx2y2   :     0.018948
      dxy     :     0.021476
      f0      :     0.001621  f :     0.009545
      f+1     :     0.002227
      f-1     :     0.000994
      f+2     :     0.001179
      f-2     :     0.001407
      f+3     :     0.001040
      f-3     :     0.001076

  4 C s       :     3.207609  s :     3.207609
      pz      :     0.770533  p :     2.544229
      px      :     0.811841
      py      :     0.961856
      dz2     :     0.030795  d :     0.112029
      dxz     :     0.024363
      dyz     :     0.021039
      dx2y2   :     0.017118
      dxy     :     0.018713
      f0      :     0.001636  f :     0.009568
      f+1     :     0.002236
      f-1     :     0.001052
      f+2     :     0.001330
      f-2     :     0.001188
      f+3     :     0.001226
      f-3     :     0.000901

  5 C s       :     3.226388  s :     3.226388
      pz      :     1.030923  p :     2.964850
      px      :     0.957695
      py      :     0.976231
      dz2     :     0.020363  d :     0.083925
      dxz     :     0.018698
      dyz     :     0.007659
      dx2y2   :     0.015490
      dxy     :     0.021715
      f0      :     0.001054  f :     0.007410
      f+1     :     0.001414
      f-1     :     0.000555
      f+2     :     0.000976
      f-2     :     0.001139
      f+3     :     0.001273
      f-3     :     0.000999

  6 C s       :     3.173708  s :     3.173708
      pz      :     0.792974  p :     2.505686
      px      :     0.815225
      py      :     0.897488
      dz2     :     0.026495  d :     0.121688
      dxz     :     0.032137
      dyz     :     0.021069
      dx2y2   :     0.024075
      dxy     :     0.017912
      f0      :     0.001451  f :     0.009753
      f+1     :     0.002080
      f-1     :     0.001221
      f+2     :     0.001621
      f-2     :     0.001059
      f+3     :     0.001362
      f-3     :     0.000959

  7 C s       :     3.190126  s :     3.190126
      pz      :     1.028127  p :     2.988925
      px      :     1.001990
      py      :     0.958808
      dz2     :     0.016308  d :     0.079944
      dxz     :     0.022644
      dyz     :     0.016799
      dx2y2   :     0.008589
      dxy     :     0.015603
      f0      :     0.001360  f :     0.007400
      f+1     :     0.001408
      f-1     :     0.000937
      f+2     :     0.000822
      f-2     :     0.001171
      f+3     :     0.000985
      f-3     :     0.000717

  8 C s       :     3.065602  s :     3.065602
      pz      :     0.707897  p :     2.517655
      px      :     0.919664
      py      :     0.890095
      dz2     :     0.040110  d :     0.174296
      dxz     :     0.044763
      dyz     :     0.037979
      dx2y2   :     0.027169
      dxy     :     0.024275
      f0      :     0.003322  f :     0.015585
      f+1     :     0.003083
      f-1     :     0.002716
      f+2     :     0.002188
      f-2     :     0.001628
      f+3     :     0.001458
      f-3     :     0.001191

  9 C s       :     3.233792  s :     3.233792
      pz      :     0.969028  p :     2.944920
      px      :     0.996270
      py      :     0.979622
      dz2     :     0.015271  d :     0.087100
      dxz     :     0.032102
      dyz     :     0.013843
      dx2y2   :     0.013719
      dxy     :     0.012165
      f0      :     0.001259  f :     0.007278
      f+1     :     0.001587
      f-1     :     0.000937
      f+2     :     0.001066
      f-2     :     0.000555
      f+3     :     0.001139
      f-3     :     0.000734

 10 C s       :     3.052869  s :     3.052869
      pz      :     0.862243  p :     2.512093
      px      :     0.757743
      py      :     0.892107
      dz2     :     0.035324  d :     0.177684
      dxz     :     0.055688
      dyz     :     0.026272
      dx2y2   :     0.024105
      dxy     :     0.036295
      f0      :     0.002214  f :     0.015559
      f+1     :     0.003485
      f-1     :     0.001301
      f+2     :     0.001854
      f-2     :     0.002279
      f+3     :     0.002376
      f-3     :     0.002051

 11 C s       :     3.306041  s :     3.306041
      pz      :     0.995231  p :     2.910041
      px      :     1.005603
      py      :     0.909207
      dz2     :     0.014368  d :     0.084136
      dxz     :     0.011200
      dyz     :     0.023898
      dx2y2   :     0.012364
      dxy     :     0.022306
      f0      :     0.000611  f :     0.005561
      f+1     :     0.001059
      f-1     :     0.000449
      f+2     :     0.000755
      f-2     :     0.000849
      f+3     :     0.000703
      f-3     :     0.001135

 12 C s       :     3.244941  s :     3.244941
      pz      :     0.886732  p :     2.882736
      px      :     1.000428
      py      :     0.995577
      dz2     :     0.025235  d :     0.078497
      dxz     :     0.014882
      dyz     :     0.018756
      dx2y2   :     0.014036
      dxy     :     0.005588
      f0      :     0.001063  f :     0.005584
      f+1     :     0.001274
      f-1     :     0.001067
      f+2     :     0.000731
      f-2     :     0.000502
      f+3     :     0.000244
      f-3     :     0.000703

 13 C s       :     3.212175  s :     3.212175
      pz      :     0.935267  p :     2.849504
      px      :     0.955422
      py      :     0.958815
      dz2     :     0.022215  d :     0.082440
      dxz     :     0.020999
      dyz     :     0.019801
      dx2y2   :     0.012268
      dxy     :     0.007158
      f0      :     0.001409  f :     0.007344
      f+1     :     0.001254
      f-1     :     0.001171
      f+2     :     0.001235
      f-2     :     0.000917
      f+3     :     0.000748
      f-3     :     0.000611

 14 C s       :     3.259671  s :     3.259671
      pz      :     0.935969  p :     2.850346
      px      :     0.906823
      py      :     1.007554
      dz2     :     0.014533  d :     0.074496
      dxz     :     0.018907
      dyz     :     0.008482
      dx2y2   :     0.013044
      dxy     :     0.019530
      f0      :     0.000936  f :     0.007521
      f+1     :     0.001453
      f-1     :     0.000596
      f+2     :     0.000980
      f-2     :     0.001173
      f+3     :     0.001302
      f-3     :     0.001080

 15 C s       :     3.253682  s :     3.253682
      pz      :     0.939670  p :     2.867564
      px      :     0.927151
      py      :     1.000743
      dz2     :     0.014555  d :     0.072689
      dxz     :     0.018700
      dyz     :     0.015621
      dx2y2   :     0.010481
      dxy     :     0.013332
      f0      :     0.001327  f :     0.007532
      f+1     :     0.001396
      f-1     :     0.000921
      f+2     :     0.000894
      f-2     :     0.001181
      f+3     :     0.001025
      f-3     :     0.000788

 16 C s       :     3.225689  s :     3.225689
      pz      :     0.945407  p :     2.777582
      px      :     0.940009
      py      :     0.892166
      dz2     :     0.003518  d :     0.075152
      dxz     :     0.016282
      dyz     :     0.014052
      dx2y2   :     0.015395
      dxy     :     0.025905
      f0      :     0.001122  f :     0.006901
      f+1     :     0.000446
      f-1     :     0.000529
      f+2     :     0.000968
      f-2     :     0.000728
      f+3     :     0.001724
      f-3     :     0.001384

 17 C s       :     3.233742  s :     3.233742
      pz      :     0.943442  p :     2.782501
      px      :     0.920090
      py      :     0.918968
      dz2     :     0.014510  d :     0.079735
      dxz     :     0.022638
      dyz     :     0.007897
      dx2y2   :     0.014064
      dxy     :     0.020624
      f0      :     0.000953  f :     0.007002
      f+1     :     0.000868
      f-1     :     0.000639
      f+2     :     0.001311
      f-2     :     0.001149
      f+3     :     0.000852
      f-3     :     0.001232

 18 C s       :     3.271835  s :     3.271835
      pz      :     1.029300  p :     2.962642
      px      :     0.918846
      py      :     1.014497
      dz2     :     0.003587  d :     0.041589
      dxz     :     0.009753
      dyz     :     0.002690
      dx2y2   :     0.009132
      dxy     :     0.016428
      f0      :     0.000997  f :     0.004837
      f+1     :     0.000388
      f-1     :     0.000307
      f+2     :     0.000453
      f-2     :     0.000591
      f+3     :     0.001102
      f-3     :     0.001000

 19 C s       :     3.256722  s :     3.256722
      pz      :     0.995674  p :     2.942136
      px      :     0.936752
      py      :     1.009710
      dz2     :     0.003384  d :     0.037721
      dxz     :     0.013869
      dyz     :     0.003068
      dx2y2   :     0.002643
      dxy     :     0.014757
      f0      :     0.000320  f :     0.004786
      f+1     :     0.000642
[...]
  23 H     1.0000    0     1.008   -8.082184   -0.887751   -0.425112
  24 H     1.0000    0     1.008   -5.860442   -1.369443   -2.847057
  25 H     1.0000    0     1.008    6.003062   -2.767149   -5.305090
  26 H     1.0000    0     1.008    8.516936   -0.602629   -5.185442
  27 H     1.0000    0     1.008    8.772057    2.503859   -1.630081
  28 H     1.0000    0     1.008   -2.980464   -4.018616    6.782452
  29 H     1.0000    0     1.008    7.128895    3.910785    2.519780
  30 H     1.0000    0     1.008   -6.387922   -6.163504   -2.249461
  31 H     1.0000    0     1.008    5.870338    2.725119   -7.216957
  32 H     1.0000    0     1.008    1.337171    1.913793    4.956809
  33 H     1.0000    0     1.008   -8.036482   -4.628690    2.685682
  34 H     1.0000    0     1.008  -10.850010   -7.164314   -1.912465
  35 H     1.0000    0     1.008  -11.546263   -3.906979   -0.871097
  36 H     1.0000    0     1.008    2.439142    1.245352   -9.862865
  37 H     1.0000    0     1.008    2.555961   -1.889617   -8.341177

--------------------------------
INTERNAL COORDINATES (ANGSTROEM)
--------------------------------
 O      0   0   0     0.000000000000     0.00000000     0.00000000
 O      1   0   0     6.369335601180     0.00000000     0.00000000
 C      1   2   0     2.429228513149    62.13610811     0.00000000
 C      3   1   2     1.485010758460    94.35798141   359.95580566
 C      2   1   3     2.427802115564    48.30477874   328.34944588
 C      5   2   1     1.390349658496   146.20083239    20.98583620
 C      3   1   2     2.446268672502   117.52639725   177.69120889
 C      7   3   1     1.389701667757    28.61253987   181.28215843
 C      1   2   3     1.364271422473    91.25866572   359.85458235
 C      4   3   1     1.399465632539   122.99668317   309.02458076
 C      2   1   3     1.363428274069    24.05148705   357.39685748
 C      5   2   1     1.516770486140    93.71103810   203.46806974
 C      7   3   1     1.517714894100   147.82795279   186.89914543
 C      7   3   1     1.393219041056    89.26980055     2.15854564
 C     10   4   3     1.387897067648   120.75911241   181.93844860
 C     14   7   3     1.388726986463   120.81591748   359.44439231
 C     12   5   2     1.507343075769   114.25053290   302.25956049
 C     13   7   3     1.507958052029   111.36564908    79.92799082
 C     17  12   5     1.330091153854   125.08077115   126.25334415
 C     18  13   7     1.327525875925   124.88774966   255.32680378
 H      6   5   2     1.083581539496   118.49387632   182.86228146
 H      8   7   3     1.083865715655   119.07796666   180.25481696
 H     10   4   3     1.083647466465   119.97122185   359.03765353
 H     12   5   2     1.094908063351   110.24560675    65.78816593
 H     12   5   2     1.094503713451   107.63643615   181.93482581
 H     13   7   3     1.091677094494   109.63152869   318.68291284
 H     13   7   3     1.093627107612   109.74829992   201.44093591
 H     14   7   3     1.084265201782   119.95694119   179.65119347
 H     15  10   4     1.082433088819   121.03971132   178.91659172
 H     16  14   7     1.082443226880   121.04417099   180.97215400
 H     17  12   5     1.086973683077   115.74509713   306.20027240
 H     18  13   7     1.086870293482   115.99787705    72.73909836
 H      1   2   3     0.965805771880    19.02264265   165.09109740
 H      2   1   3     0.967795072478   131.15361463   322.34333112
 H     19  17  12     1.082607855256   121.54203979   179.24816501
 H     19  17  12     1.085316769744   121.62040317     0.26933894
 H     20  18  13     1.083070430300   121.58008177   177.89580305
 H     20  18  13     1.084863812397   121.75603095   358.69718625

---------------------------
INTERNAL COORDINATES (A.U.)
---------------------------
 O      0   0   0     0.000000000000     0.00000000     0.00000000
 O      1   0   0    12.036299941265     0.00000000     0.00000000
 C      1   2   0     4.590576606564    62.13610811     0.00000000
 C      3   1   2     2.806263639416    94.35798141   359.95580566
 C      2   1   3     4.587881105771    48.30477874   328.34944588
 C      5   2   1     2.627380084949   146.20083239    20.98583620
 C      3   1   2     4.622777841021   117.52639725   177.69120889
 C      7   3   1     2.626155559914    28.61253987   181.28215843
 C      1   2   3     2.578099360810    91.25866572   359.85458235
 C      4   3   1     2.644606779333   122.99668317   309.02458076
 C      2   1   3     2.576506041236    24.05148705   357.39685748
 C      5   2   1     2.866280826819    93.71103810   203.46806974
 C      7   3   1     2.868065499223   147.82795279   186.89914543
 C      7   3   1     2.632802432159    89.26980055     2.15854564
 C     10   4   3     2.622745359928   120.75911241   181.93844860
 C     14   7   3     2.624313679201   120.81591748   359.44439231
 C     12   5   2     2.848465603067   114.25053290   302.25956049
 C     13   7   3     2.849627739777   111.36564908    79.92799082
 C     17  12   5     2.513508013935   125.08077115   126.25334415
 C     18  13   7     2.508660341192   124.88774966   255.32680378
 H      6   5   2     2.047672353421   118.49387632   182.86228146
 H      8   7   3     2.048209368534   119.07796666   180.25481696
 H     10   4   3     2.047796937336   119.97122185   359.03765353
 H     12   5   2     2.069076381555   110.24560675    65.78816593
 H     12   5   2     2.068312270983   107.63643615   181.93482581
 H     13   7   3     2.062970735268   109.63152869   318.68291284
 H     13   7   3     2.066655726020   109.74829992   201.44093591
 H     14   7   3     2.048964287909   119.95694119   179.65119347
 H     15  10   4     2.045502096162   121.03971132   178.91659172
 H     16  14   7     2.045521254322   121.04417099   180.97215400
 H     17  12   5     2.054082575795   115.74509713   306.20027240
 H     18  13   7     2.053887197775   115.99787705    72.73909836
 H      1   2   3     1.825108407413    19.02264265   165.09109740
 H      2   1   3     1.828867640741   131.15361463   322.34333112
 H     19  17  12     2.045832356865   121.54203979   179.24816501
 H     19  17  12     2.050951463369   121.62040317     0.26933894
 H     20  18  13     2.046706497015   121.58008177   177.89580305
 H     20  18  13     2.050095498033   121.75603095   358.69718625



           ************************************************************
           *        Program running with 20 parallel MPI-processes    *
           *              working on a common directory               *
           ************************************************************
------------------------------------------------------------------------------
                   ___                                                        
                  /   \      - P O W E R E D   B Y -                         
                 /     \                                                     
                 |  |  |   _    _      __       _____    __    __             
                 |  |  |  | |  | |    /  \     |  _  \  |  |  /  |          
                  \  \/   | |  | |   /    \    | | | |  |  | /  /          
                 / \  \   | |__| |  /  /\  \   | |_| |  |  |/  /          
                |  |  |   |  __  | /  /__\  \  |    /   |      \           
                |  |  |   | |  | | |   __   |  |    \   |  |\   \          
                \     /   | |  | | |  |  |  |  | |\  \  |  | \   \       
                 \___/    |_|  |_| |__|  |__|  |_| \__\ |__|  \__/        
                                                                              
                      - O R C A' S   B I G   F R I E N D -                    
                                      &                                       
                       - I N T E G R A L  F E E D E R -                       
                                                                              
 v1 FN, 2020, v2 2021, v3 2022-2024                                           
------------------------------------------------------------------------------


----------------------
SHARK INTEGRAL PACKAGE
----------------------

Number of atoms                             ...     38
Number of basis functions                   ...    728
Number of shells                            ...    292
Maximum angular momentum                    ...      3
Integral batch strategy                     ... SHARK/LIBINT Hybrid
RI-J (if used) integral strategy            ... SPLIT-RIJ (Revised 2003 algorithm where possible)
Printlevel                                  ...      1
Contraction scheme used                     ... SEGMENTED contraction
Prescreening option                         ... SCHWARTZ
   Thresh                                   ... 2.500e-11
   Tcut                                     ... 2.500e-12
   Tpresel                                  ... 2.500e-12 
Coulomb Range Separation                    ... NOT USED
Exchange Range Separation                   ... NOT USED
Multipole approximations                    ... NOT USED
Finite Nucleus Model                        ... NOT USED
CABS basis                                  ... NOT available
Auxiliary Coulomb fitting basis             ... AVAILABLE
   # of basis functions in Aux-J            ...   1178
   # of shells in Aux-J                     ...    390
   Maximum angular momentum in Aux-J        ...      4
Auxiliary J/K fitting basis                 ... NOT available
Auxiliary Correlation fitting basis         ... NOT available
Auxiliary 'external' fitting basis          ... NOT available

Checking pre-screening integrals            ... done (  0.0 sec) Dimension = 292
Check shell pair data                       ... done (  0.0 sec)
Shell pair information
Shell pair cut-off parameter TPreSel        ...   2.5e-12
Total number of shell pairs                 ...     42778
Shell pairs after pre-screening             ...     29798
Total number of primitive shell pairs       ...    129780
Primitive shell pairs kept                  ...     60915
          la=0 lb=0:   8048 shell pairs
          la=1 lb=0:   8684 shell pairs
          la=1 lb=1:   2370 shell pairs
          la=2 lb=0:   4164 shell pairs
          la=2 lb=1:   2273 shell pairs
          la=2 lb=2:    563 shell pairs
          la=3 lb=0:   1964 shell pairs
          la=3 lb=1:   1087 shell pairs
          la=3 lb=2:    513 shell pairs
          la=3 lb=3:    132 shell pairs

Calculating one electron integrals          ... done (  0.0 sec)
Calculating RI/J V-Matrix + Cholesky decomp.... done (  0.1 sec)
Calculating Nuclear repulsion               ... done (  0.0 sec) ENN=   1419.248366650553 Eh

Diagonalization of the overlap matrix:
Smallest eigenvalue                        ... 6.747e-06
Time for diagonalization                   ...    0.062 sec
Threshold for overlap eigenvalues          ... 1.000e-07
Number of eigenvalues below threshold      ... 0
Time for construction of square roots      ...    0.029 sec
Total time needed                          ...    0.095 sec

-------------------
DFT GRID GENERATION
-------------------

General Integration Accuracy     IntAcc      ... 4.388
Radial Grid Type                 RadialGrid  ... OptM3 with GC (2021)
Angular Grid (max. ang.)         AngularGrid ... 4 (Lebedev-302)
Angular grid pruning method      GridPruning ... 4 (adaptive)
Weight generation scheme         WeightScheme... mBecke (2022)
Basis function cutoff            BFCut       ... 1.0000e-11
Integration weight cutoff        WCut        ... 1.0000e-14
Partially contracted basis set               ... off
Rotationally invariant grid construction     ... off
Angular grids for H and He will be reduced by one unit

Total number of grid points                  ...   177112
Total number of batches                      ...     2786
Average number of points per batch           ...       63
Average number of grid points per atom       ...     4661

--------------------
COSX GRID GENERATION
--------------------

GRIDX 1
-------
General Integration Accuracy     IntAcc      ... 3.816
Radial Grid Type                 RadialGrid  ... OptM3 with GC (2021)
Angular Grid (max. ang.)         AngularGrid ... 1 (Lebedev-50)
Angular grid pruning method      GridPruning ... 4 (adaptive)
Weight generation scheme         WeightScheme... mBecke (2022)
Basis function cutoff            BFCut       ... 1.0000e-11
Integration weight cutoff        WCut        ... 1.0000e-14
Partially contracted basis set               ... on
Rotationally invariant grid construction     ... off
Angular grids for H and He will be reduced by one unit

Total number of grid points                  ...    22467
Total number of batches                      ...      199
Average number of points per batch           ...      112
Average number of grid points per atom       ...      591
UseSFitting                                  ... on

GRIDX 2
-------
General Integration Accuracy     IntAcc      ... 4.020
Radial Grid Type                 RadialGrid  ... OptM3 with GC (2021)
Angular Grid (max. ang.)         AngularGrid ... 2 (Lebedev-110)
Angular grid pruning method      GridPruning ... 4 (adaptive)
Weight generation scheme         WeightScheme... mBecke (2022)
Basis function cutoff            BFCut       ... 1.0000e-11
Integration weight cutoff        WCut        ... 1.0000e-14
Partially contracted basis set               ... on
Rotationally invariant grid construction     ... off
Angular grids for H and He will be reduced by one unit

Total number of grid points                  ...    48498
Total number of batches                      ...      400
Average number of points per batch           ...      121
Average number of grid points per atom       ...     1276
UseSFitting                                  ... on

GRIDX 3
-------
General Integration Accuracy     IntAcc      ... 4.338
Radial Grid Type                 RadialGrid  ... OptM3 with GC (2021)
Angular Grid (max. ang.)         AngularGrid ... 3 (Lebedev-194)
Angular grid pruning method      GridPruning ... 4 (adaptive)
Weight generation scheme         WeightScheme... mBecke (2022)
Basis function cutoff            BFCut       ... 1.0000e-11
Integration weight cutoff        WCut        ... 1.0000e-14
Partially contracted basis set               ... on
Rotationally invariant grid construction     ... off
Angular grids for H and He will be reduced by one unit

Total number of grid points                  ...   106093
Total number of batches                      ...      847
Average number of points per batch           ...      125
Average number of grid points per atom       ...     2792
UseSFitting                                  ... on
Initializing property integral containers    ... done (  0.0 sec)

SHARK setup successfully completed in   2.1 seconds

Maximum memory used throughout the entire STARTUP-calculation: 74.8 MB


           ************************************************************
           *        Program running with 20 parallel MPI-processes    *
           *              working on a common directory               *
           ************************************************************
Occupation numbers will be reassigned to an Aufbau configuration
             **** ENERGY FILE WAS UPDATED (honokiol3.en.tmp) ****
Finished Guess after   0.9 sec
Maximum memory used throughout the entire GUESS-calculation: 64.1 MB


           ************************************************************
           *        Program running with 20 parallel MPI-processes    *
           *              working on a common directory               *
           ************************************************************
----------------------------------------D-I-I-S--------------------------------------------
Iteration    Energy (Eh)           Delta-E    RMSDP     MaxDP     DIISErr   Damp  Time(sec)
-------------------------------------------------------------------------------------------
               ***  Starting incremental Fock matrix formation  ***
    1    -846.9613589743678403     0.00e+00  1.19e-04  8.82e-03  2.62e-02  0.700   3.6
    2    -846.9626904808417294    -1.33e-03  1.03e-04  7.37e-03  2.06e-02  0.700   1.9
                               ***Turning on AO-DIIS***
    3    -846.9637661090380334    -1.08e-03  7.85e-05  5.34e-03  1.55e-02  0.700   1.8
    4    -846.9645716897427974    -8.06e-04  1.90e-04  1.21e-02  1.12e-02  0.000   1.8
                              *** Initializing SOSCF ***
---------------------------------------S-O-S-C-F--------------------------------------
Iteration    Energy (Eh)           Delta-E    RMSDP     MaxDP     MaxGrad    Time(sec)
--------------------------------------------------------------------------------------
    5    -846.9666183787933278    -2.05e-03  1.09e-05  4.62e-04  5.88e-04     2.0
               *** Restarting incremental Fock matrix formation ***
    6    -846.9666259380030624    -7.56e-06  9.47e-06  2.89e-04  1.49e-04     3.5
    7    -846.9666279214077349    -1.98e-06  3.60e-06  4.58e-04  2.60e-05     2.2
    8    -846.9666279116252099     9.78e-09  2.10e-06  2.94e-04  2.20e-05     1.9
                 **** Energy Check signals convergence ****

               *****************************************************
               *                     SUCCESS                       *
               *           SCF CONVERGED AFTER   8 CYCLES          *
               *****************************************************

Recomputing exchange energy using gridx3       ... done (    5.477 sec)
Old exchange energy                            :    -23.256074144 Eh
New exchange energy                            :    -23.256084949 Eh
Exchange energy change after final integration :     -0.000010805 Eh
Total energy after final integration           :   -846.966638717 Eh
             **** ENERGY FILE WAS UPDATED (honokiol3.en.tmp) ****

----------------
TOTAL SCF ENERGY
----------------

Total Energy       :       -846.96663871660201 Eh          -23047.13393 eV

Components:
Nuclear Repulsion  :       1419.24836665055341 Eh           38619.71144 eV
Electronic Energy  :      -2266.21499456217862 Eh          -61666.84508 eV
One Electron Energy:      -3966.30117662427028 Eh         -107928.54200 eV
Two Electron Energy:       1700.08618206209167 Eh           46261.69691 eV

Virial components:
Potential Energy   :      -1690.14605761116945 Eh          -45991.21238 eV
Kinetic Energy     :        843.17941889456745 Eh           22944.07844 eV
Virial Ratio       :          2.00449159424100

DFT components:
N(Alpha)           :       71.000114774540 electrons
N(Beta)            :       71.000114774540 electrons
N(Total)           :      142.000229549080 electrons
E(X)               :      -92.387019299109 Eh       
E(C)               :       -5.640550023089 Eh       
E(XC)              :      -98.027569322198 Eh       

---------------
SCF CONVERGENCE
---------------

  Last Energy change         ...   -9.7825e-09  Tolerance :   1.0000e-08
  Last MAX-Density change    ...    2.9392e-04  Tolerance :   1.0000e-07
  Last RMS-Density change    ...    2.1050e-06  Tolerance :   5.0000e-09
  Last DIIS Error            ...    5.8798e-04  Tolerance :   5.0000e-07
  Last Orbital Gradient      ...    2.2047e-05  Tolerance :   1.0000e-05
  Last Orbital Rotation      ...    3.6281e-05  Tolerance :   1.0000e-05


Total SCF time: 0 days 0 hours 0 min 25 sec 
Finished LeanSCF after  25.2 sec

Maximum memory used throughout the entire LEANSCF-calculation: 105.5 MB

-------------------------   --------------------
FINAL SINGLE POINT ENERGY      -846.966638716602
-------------------------   --------------------


ORCA finished by error termination in SCF gradient
Calling Command: mpirun -np 20  /home/yongsang/orca_6_0_1_linux_x86-64_shared_openmpi416/orca_scfgrad_mpi honokiol3.scfgrad.inp honokiol3 
[file orca_tools/qcmsg.cpp, line 394]: 
  .... aborting the run

