
                                 *****************
                                 * O   R   C   A *
                                 *****************

                                            #,                                       
                                            ###                                      
                                            ####                                     
                                            #####                                    
                                            ######                                   
                                           ########,                                 
                                     ,,################,,,,,                         
                               ,,#################################,,                 
                          ,,##########################################,,             
                       ,#########################################, ''#####,          
                    ,#############################################,,   '####,        
                  ,##################################################,,,,####,       
                ,###########''''           ''''###############################       
              ,#####''   ,,,,##########,,,,          '''####'''          '####       
            ,##' ,,,,###########################,,,                        '##       
           ' ,,###''''                  '''############,,,                           
         ,,##''                                '''############,,,,        ,,,,,,###''
      ,#''                                            '''#######################'''  
     '                                                          ''''####''''         
             ,#######,   #######,   ,#######,      ##                                
            ,#'     '#,  ##    ##  ,#'     '#,    #''#        ,####,   ,####,        
            ##       ##  ##   ,#'  ##            #'  '#       #'       #'  '#        
            ##       ##  #######   ##           ,######,      #####,   #    #        
            '#,     ,#'  ##    ##  '#,     ,#' ,#      #,     #,   #   #,  ,#        
             '#######'   ##     ##  '#######'  #'      '#     '####' # '####'        



                #########################################################
                #                        -***-                          #
                #          Department of theory and spectroscopy        #
                #                                                       #
                #                      Frank Neese                      #
                #                                                       #
                #     Directorship, Architecture, Infrastructure        #
                #                    SHARK, DRIVERS                     #
                #        Core code/Algorithms in most modules           #
                #                                                       #
                #        Max Planck Institute fuer Kohlenforschung      #
                #                Kaiser Wilhelm Platz 1                 #
                #                 D-45470 Muelheim/Ruhr                 #
                #                      Germany                          #
                #                                                       #
                #                  All rights reserved                  #
                #                        -***-                          #
                #########################################################


                         Program Version 6.0.1  -  RELEASE   -


 With contributions from (in alphabetic order):
[Max-Planck-Institut fuer Kohlenforschung]                               
  Daniel Aravena         : Magnetic Suceptibility                        
  Michael Atanasov       : Ab Initio Ligand Field Theory (pilot matlab implementation)
  Alexander A. Auer      : GIAO ZORA, VPT2 properties, NMR spectrum      
  Ute Becker             : All parallelization in ORCA, NUMFREQ, NUMCALC 
  Giovanni Bistoni       : ED, misc. LED, open-shell LED, HFLD           
  Martin Brehm           : Molecular dynamics                            
  Dmytro Bykov           : pre 5.0 version of the SCF Hessian            
  Marcos Casanova-Páez   : Triplet and SCS-CIS(D). UHF-(DLPNO)-IP/EA/STEOM-CCSD. UHF-CVS-IP/STEOM-CCSD   
  Vijay G. Chilkuri      : MRCI spin determinant printing, contributions to CSF-ICE 
  Pauline Colinet        : FMM embedding                                 
  Dipayan Datta          : RHF DLPNO-CCSD density                        
  Achintya Kumar Dutta   : EOM-CC, STEOM-CC                              
  Nicolas Foglia         : Exact transition moments, OPA infrastructure, MCD improvements    
  Dmitry Ganyushin       : Spin-Orbit,Spin-Spin,Magnetic field MRCI      
  Miquel Garcia-Rates    : C-PCM and meta-GGA Hessian, CCSD/C-PCM, Gaussian charge scheme 
  Tiago L. C. Gouveia    : GS-ROHF, GS-ROCIS                             
  Yang Guo               : DLPNO-NEVPT2, F12-NEVPT2, CIM, IAO-localization        
  Andreas Hansen         : Spin unrestricted coupled pair/coupled cluster methods 
  Ingolf Harden          : AUTO-CI MPn and infrastructure                
  Benjamin Helmich-Paris : MC-RPA, TRAH-(SCF,CASSCF), AVAS, COSX integrals, SCF dyn. polar. 
  Lee Huntington         : MR-EOM, pCC                                   
  Robert Izsak           : Overlap fitted RIJCOSX, COSX-SCS-MP3, EOM     
  Riya Kayal             : Wick's Theorem for AUTO-CI, AUTO-CI UHF-CCSDT 
  Emily Kempfer          : AUTO-CI, RHF CISDT and CCSDT                  
  Christian Kollmar      : KDIIS, OOCD, Brueckner-CCSD(T), CCSD density, CASPT2, CASPT2-K, improved NEVPT2 
  Axel Koslowski         : Symmetry handling                             
  Simone Kossmann        : meta-GGA functionals, TD-DFT gradient, OOMP2, (MP2 Hessian; deprecated post 5.0) 
  Lucas Lang             : DCDCAS                                        
  Marvin Lechner         : AUTO-CI (C++ implementation), FIC-MRCC        
  Spencer Leger          : CASSCF response                               
  Dagmar Lenk            : GEPOL surface, SMD, ORCA-2-JSON               
  Dimitrios Liakos       : Extrapolation schemes; Compound Job, initial MDCI parallelization 
  Dimitrios Manganas     : Further ROCIS development; embedding schemes. LFT, Crystal Embedding 
  Dimitrios Pantazis     : SARC Basis sets                               
  Anastasios Papadopoulos: AUTO-CI, single reference methods and gradients 
  Taras Petrenko         : pre 6.0 DFT Hessian and TD-DFT gradient, (ASA, deprecated), ECA, 1-Electron XAS/XES, NRVS 
  Peter Pinski           : DLPNO-MP2, DLPNO-MP2 Gradient                 
  Christoph Reimann      : Effective Core Potentials                     
  Marius Retegan         : Local ZFS, SOC                                
  Christoph Riplinger    : Optimizer, TS searches, QM/MM, DLPNO-CCSD(T), (RO)-DLPNO pert. Triples 
  Michael Roemelt        : Original ROCIS implementation                 
  Masaaki Saitow         : Open-shell DLPNO-CCSD energy and density      
  Barbara Sandhoefer     : DKH picture change effects                    
  Kantharuban Sivalingam : CASSCF convergence/infrastructure, NEVPT2 and variants, FIC-MRCI 
  Bernardo de Souza      : ESD, SOC TD-DFT                               
  Georgi L. Stoychev     : AutoAux, RI-MP2 NMR, DLPNO-MP2 response, X2C  
  Van Anh Tran           : RI-MP2 g-tensors                              
  Willem Van den Heuvel  : Paramagnetic NMR                              
  Zikuan Wang            : NOTCH, Electric field optimization            
  Frank Wennmohs         : Technical directorship and infrastructure     
  Hang Xu                : AUTO-CI-Response properties                   
                                                                         
[FACCTs GmbH]                                                            
  Markus Bursch, Miquel Garcia-Rates, Christoph Riplinger, Bernardo de Souza, Georgi L. Stoychev 
                                                                 
  APM, Basis sets (HGBS, AHGBS, def-TZVP (Ac-Lr), def2-XVPD (La-Lu)), CI-OPT, improved COSX, DLPNO-Multilevel,           
  DOCKER, DRACO, updates on ESD, GOAT, IRC, LR-CPCM, MBIS, meta-GGA TD-DFT gradient, ML-optimized integration grids, 
  MM, NACMEs, nearIR, NEB, NEB-TS, NL-DFT gradient (VV10), 2- and 3-layer-ONIOM, interface openCOSMO-RS, QMMM,   
  Crystal-QMMM, SF, symmetry and pop. for TD-DFT, r2SCAN hybrids, SOLVATOR                                   
                                                                         
[Other institutions]                                                     
  V. Asgeirsson          : NEB                                           
  Christoph Bannwarth    : sTDA-DFT, sTD-DFT, PBEh-3c, B97-3c, D3        
  Sebastian Ehlert       : rSCAN, r2SCAN, r2SCAN-3c, D4, dhf basis sets  
  Marvin Friede          : D4 for Fr, Ra, Ac-Lr                          
  Lars Goerigk           : TD-DFT with DH, B97 family of functionals     
  Stefan Grimme          : VdW corrections, initial TS optimization, DFT functionals, gCP, sTDA/sTD-DF 
  Waldemar Hujo          : DFT-NL                                        
  H. Jonsson             : NEB                                           
  Holger Kruse           : gCP                                           
  Marcel Mueller         : wB97X-3c, vDZP basis set                      
  Hagen Neugebauer       : wr2SCAN                                       
  Tobias Risthaus        : range-separated hybrid DFT                    
  Lukas Wittmann         : regularized MP2, r2SCAN double-hybrids, wr2SCAN        
                                                                         
We gratefully acknowledge several colleagues who have allowed us to      
interface, adapt or use parts of their codes:                            
  Ed Valeev, F. Pavosevic, A. Kumar             : LibInt (2-el integral package), F12 methods 
  Garnet Chan, S. Sharma, J. Yang, R. Olivares  : DMRG                   
  Ulf Ekstrom                                   : XCFun DFT Library      
  Mihaly Kallay                                 : mrcc  (arbitrary order and MRCC methods)
  Frank Weinhold                                : gennbo (NPA and NBO analysis)           
  Simon Mueller                                 : openCOSMO-RS                            
  Christopher J. Cramer and Donald G. Truhlar   : smd solvation model                     
  S Lehtola, MJT Oliveira, MAL Marques          : LibXC Library                           
  Liviu Ungur et al                             : ANISO software                          


 Your calculation uses the libint2 library for the computation of 2-el integrals
 For citations please refer to: http://libint.valeyev.net

 Your ORCA version has been built with support for libXC version: 6.2.2
 For citations please refer to: https://libxc.gitlab.io

 This ORCA versions uses:
   CBLAS   interface :  Fast vector & matrix operations
   LAPACKE interface :  Fast linear algebra routines
   SCALAPACK package :  Parallel linear algebra routines
   Shared memory     :  Shared parallel matrices
   BLAS/LAPACK       :  OpenBLAS 0.3.27  USE64BITINT DYNAMIC_ARCH NO_AFFINITY SkylakeX SINGLE_THREADED
        Core in use  :  SkylakeX
   Copyright (c) 2011-2014, The OpenBLAS Project


NOTE: MaxCore=5000 MB was set to SCF,MP2,MDCI,CIPSI,MRCI and CIS
      => If you want to overwrite this, your respective input block should be placed after the MaxCore statement
Warning: RI is on but no J-basis has been assigned. Assigning Def2/J (nothing to worry about!)
================================================================================

----- Orbital basis set information -----
Your calculation utilizes the basis: def2-TZVP
   F. Weigend and R. Ahlrichs, Phys. Chem. Chem. Phys. 7, 3297 (2005).

----- AuxJ basis set information -----
Your calculation utilizes the auxiliary basis: def2/J
   F. Weigend, Phys. Chem. Chem. Phys. 8, 1057 (2006).

================================================================================
                                        WARNINGS
                       Please study these warnings very carefully!
================================================================================

WARNING: Old DensityContainer found on disk!
         Will remove this file - 
         If you want to keep old densities, please start your calculation with a different basename. 


WARNING: Geometry Optimization
  ===> : Switching off AutoStart
         For restart on a previous wavefunction, please use MOREAD

================================================================================
                                       INPUT FILE
================================================================================
NAME = honokiol.inp
|  1> ! Opt B3LYP def2-TZVP TightSCF TightOpt CPCM(water)
|  2> 
|  3> %maxcore 5000
|  4> 
|  5> %pal
|  6> nprocs 26
|  7> end
|  8> 
|  9> * xyz 0 1
| 10> O           0.14195807768700      2.09649645532458     -1.71758039806954
| 11>   O          -4.11677461060348     -1.26837164177824      1.41684880324460
| 12>   C           1.01891116879739      0.48345699501260     -0.19322734147882
| 13>   C          -0.33800932726144      0.05739617583861      0.23116680549651
| 14>   C          -2.61815229857950     -0.65370132487175     -0.31349482882857
| 15>   C          -1.35479687451475     -0.21310516274641     -0.69157709671374
| 16>   C           3.45346826346022      0.26136238808768      0.04650317081735
| 17>   C           2.14970525830338     -0.10589223448056      0.37790533534919
| 18>   C           1.23245772529607      1.48820741439248     -1.15454611461401
| 19>   C          -0.62961098801703     -0.12613827011741      1.58460348021307
| 20>   C          -2.87310475440862     -0.82903433453494      1.05248634283977
| 21>   C          -3.69695898954153     -0.91251261570987     -1.34392670576360
| 22>   C           4.64062278629025     -0.42027016401517      0.70081200154604
| 23>   C           3.62454268957433      1.25921805153624     -0.90760509468109
| 24>   C          -1.88139527644026     -0.56566201210519      1.99162797404432
| 25>   C           2.52468689267115      1.86535234434629     -1.50202397212605
| 26>   C          -4.59640653228220      0.27847809780774     -1.55514244948926
| 27>   C           4.74727074883829     -1.88370489969172      0.36921093847323
| 28>   C          -5.91306377421964      0.28053423358574     -1.39243536117994
| 29>   C           4.77707582238039     -2.86852104377716      1.25893889832586
| 30>   H          -1.15260504881687     -0.08591870383506     -1.74719351953062
| 31>   H           1.99892001751600     -0.90169542103129      1.09812194263413
| 32>   H           0.12342672771298      0.09035074618038      2.33182909427335
| 33>   H          -3.20911236432750     -1.15994897976417     -2.29230459583180
| 34>   H          -4.29936265813573     -1.77460017090506     -1.05267762209117
| 35>   H           5.55358819595958      0.08772939236327      0.37273196115468
| 36>   H           4.59088083253884     -0.30217588776499      1.78761082606425
| 37>   H           4.62234205592137      1.57163680494710     -1.19338084879926
| 38>   H          -2.09216495733860     -0.69823016739369      3.04813959902179
| 39>   H           2.67086537878111      2.64780291464514     -2.24017259855935
| 40>   H          -4.09519062302390      1.19361985887824     -1.86105840327675
| 41>   H           4.79578502485740     -2.12290157732642     -0.69038098167719
| 42>   H           0.44107952413746      2.79356728757637     -2.31219057680528
| 43>   H          -4.16086903685334     -1.34587982130528      2.37639188148268
| 44>   H          -6.50376648573178      1.17158762663064     -1.56626406490827
| 45>   H          -6.44716526510819     -0.60760264562391     -1.07330047833755
| 46>   H           4.85726856263323     -3.90517883585645      0.95637994783046
| 47>   H           4.72445411184790     -2.67335087251834      2.32487404995057
| 48> *
| 49> 
| 50>                          ****END OF INPUT****
================================================================================

                       *****************************
                       * Geometry Optimization Run *
                       *****************************

Geometry optimization settings:
Update method            Update   .... BFGS
Choice of coordinates    CoordSys .... (2022) Redundant Internals
Initial Hessian          InHess   .... Almloef's Model
Max. no of cycles        MaxIter  .... 114

Convergence Tolerances:
Energy Change            TolE     ....  1.0000e-06 Eh
Max. Gradient            TolMAXG  ....  1.0000e-04 Eh/bohr
RMS Gradient             TolRMSG  ....  3.0000e-05 Eh/bohr
Max. Displacement        TolMAXD  ....  1.0000e-03 bohr
RMS Displacement         TolRMSD  ....  6.0000e-04 bohr
Strict Convergence                .... False

------------------------------------------------------------------------------
                        ORCA OPTIMIZATION COORDINATE SETUP
------------------------------------------------------------------------------

The optimization will be done in redundant internal coordinates (2022)
Making redundant internal coordinates   ...  (2022 redundants) done
Evaluating the initial hessian          ...  (Almloef) done
Evaluating the coordinates              ...  done
Calculating the B-matrix                .... done
Calculating the G-matrix                .... done
Diagonalizing the G-matrix              .... done
Small eigenvalue found = 3.340e-03
Small eigenvalue found = 6.459e-03
Small eigenvalue found = 1.050e-02
Small eigenvalue found = 1.804e-02
Small eigenvalue found = 2.432e-02
The first mode is                       ....   77
The number of degrees of freedom        ....  108

    -----------------------------------------------------------------
                    Redundant Internal Coordinates


    -----------------------------------------------------------------
         Definition                    Initial Value    Approx d2E/dq
    -----------------------------------------------------------------
      1. B(C   3,C   2)                  1.4842         0.442015   
      2. B(C   5,C   3)                  1.3995         0.603459   
      3. B(C   5,C   4)                  1.3904         0.623940   
      4. B(C   7,C   6)                  1.3945         0.614657   
      5. B(C   7,C   2)                  1.3972         0.608445   
      6. B(C   8,C   2)                  1.4069         0.587269   
      7. B(C   8,O   0)                  1.3697         0.602816   
      8. B(C   9,C   3)                  1.3966         0.609817   
      9. B(C  10,C   4)                  1.4006         0.600961   
     10. B(C  10,O   1)                  1.3684         0.605832   
     11. B(C  11,C   4)                  1.5141         0.395998   
     12. B(C  12,C   6)                  1.5173         0.391474   
     13. B(C  13,C   6)                  1.3912         0.622157   
     14. B(C  14,C  10)                  1.3910         0.622539   
     15. B(C  14,C   9)                  1.3877         0.630012   
     16. B(C  15,C  13)                  1.3894         0.626189   
     17. B(C  15,C   8)                  1.3903         0.624190   
     18. B(C  16,C  11)                  1.5073         0.406002   
     19. B(C  17,C  12)                  1.5043         0.410535   
     20. B(C  18,C  16)                  1.3267         0.788444   
     21. B(C  19,C  17)                  1.3275         0.785935   
     22. B(H  20,C   5)                  1.0823         0.370425   
     23. B(H  21,C   7)                  1.0839         0.368316   
     24. B(H  22,C   9)                  1.0827         0.369862   
     25. B(H  23,C  11)                  1.0948         0.353775   
     26. B(H  24,C  11)                  1.0913         0.358399   
     27. B(H  25,C  12)                  1.0951         0.353439   
     28. B(H  26,C  12)                  1.0943         0.354421   
     29. B(H  27,C  13)                  1.0839         0.368237   
     30. B(H  28,C  14)                  1.0855         0.366161   
     31. B(H  29,C  15)                  1.0856         0.366009   
     32. B(H  30,C  16)                  1.0873         0.363650   
     33. B(H  31,C  17)                  1.0873         0.363639   
     34. B(H  32,O   0)                  0.9638         0.512717   
     35. B(H  33,O   1)                  0.9637         0.512979   
     36. B(H  34,C  18)                  1.0831         0.369334   
     37. B(H  35,C  18)                  1.0844         0.367600   
     38. B(H  36,C  19)                  1.0829         0.369641   
     39. B(H  37,C  19)                  1.0849         0.366867   
     40. A(C   8,O   0,H  32)          109.1287         0.367448   
     41. A(C  10,O   1,H  33)          109.4228         0.367795   
     42. A(C   7,C   2,C   8)          117.2393         0.428408   
     43. A(C   3,C   2,C   7)          120.1287         0.407267   
     44. A(C   3,C   2,C   8)          122.6272         0.404725   
     45. A(C   2,C   3,C   9)          120.3787         0.407429   
     46. A(C   2,C   3,C   5)          122.0864         0.406675   
     47. A(C   5,C   3,C   9)          117.5082         0.430677   
     48. A(C  10,C   4,C  11)          120.8394         0.398577   
     49. A(C   5,C   4,C  11)          121.0984         0.401218   
     50. A(C   5,C   4,C  10)          118.0526         0.432130   
     51. A(C   3,C   5,H  20)          118.9897         0.352982   
     52. A(C   3,C   5,C   4)          122.8292         0.432453   
     53. A(C   4,C   5,H  20)          118.1780         0.354984   
     54. A(C   7,C   6,C  13)          117.8320         0.433662   
     55. A(C   7,C   6,C  12)          120.7131         0.399352   
     56. A(C  12,C   6,C  13)          121.4523         0.400205   
     57. A(C   2,C   7,H  21)          117.9518         0.353133   
     58. A(C   6,C   7,H  21)          118.7746         0.353741   
     59. A(C   2,C   7,C   6)          123.2606         0.431927   
     60. A(O   0,C   8,C   2)          118.5018         0.424907   
     61. A(C   2,C   8,C  15)          120.3718         0.430376   
     62. A(O   0,C   8,C  15)          121.1168         0.429575   
     63. A(C   3,C   9,C  14)          120.9437         0.434024   
     64. A(C  14,C   9,H  22)          119.2276         0.355476   
     65. A(C   3,C   9,H  22)          119.8224         0.353518   
     66. A(O   1,C  10,C   4)          117.7313         0.427046   
     67. A(O   1,C  10,C  14)          121.9371         0.429756   
     68. A(C   4,C  10,C  14)          120.3311         0.431956   
     69. A(C   4,C  11,C  16)          112.6721         0.372282   
     70. A(H  23,C  11,H  24)          107.3748         0.289816   
     71. A(C  16,C  11,H  24)          109.4014         0.328538   
     72. A(C   4,C  11,H  24)          110.2860         0.327189   
     73. A(C  16,C  11,H  23)          108.8494         0.327834   
     74. A(C   4,C  11,H  23)          108.0991         0.326490   
     75. A(C   6,C  12,C  17)          113.4190         0.372258   
     76. A(H  25,C  12,H  26)          106.5808         0.289266   
     77. A(C   6,C  12,H  26)          110.1349         0.325971   
     78. A(C  17,C  12,H  25)          109.0346         0.328384   
     79. A(C   6,C  12,H  25)          108.3432         0.325822   
     80. A(C  17,C  12,H  26)          109.0941         0.328534   
     81. A(C   6,C  13,C  15)          120.5970         0.435115   
     82. A(C  15,C  13,H  27)          119.3521         0.354844   
     83. A(C   6,C  13,H  27)          120.0509         0.354456   
     84. A(C  10,C  14,H  28)          119.7090         0.354153   
     85. A(C   9,C  14,H  28)          119.9547         0.354870   
     86. A(C   9,C  14,C  10)          120.3347         0.435640   
     87. A(C  13,C  15,H  29)          119.9177         0.354479   
     88. A(C   8,C  15,H  29)          119.3825         0.354287   
     89. A(C   8,C  15,C  13)          120.6979         0.435370   
     90. A(C  11,C  16,C  18)          125.1869         0.420064   
     91. A(C  18,C  16,H  30)          119.3853         0.368282   
     92. A(C  11,C  16,H  30)          115.4274         0.329327   
     93. A(C  12,C  17,C  19)          125.1367         0.420658   
     94. A(C  19,C  17,H  31)          119.2691         0.368079   
     95. A(C  12,C  17,H  31)          115.5930         0.329930   
     96. A(H  34,C  18,H  35)          116.8983         0.292949   
     97. A(C  16,C  18,H  35)          121.5769         0.368966   
     98. A(C  16,C  18,H  34)          121.5237         0.369264   
     99. A(H  36,C  19,H  37)          116.7638         0.292895   
    100. A(C  17,C  19,H  37)          121.5964         0.368638   
    101. A(C  17,C  19,H  36)          121.6396         0.369115   
    102. D(C   5,C   3,C   2,C   8)     46.7819         0.013328   
    103. D(C   9,C   3,C   2,C   8)   -135.1461         0.013328   
    104. D(C   9,C   3,C   2,C   7)     44.0349         0.013328   
    105. D(C   5,C   3,C   2,C   7)   -134.0371         0.013328   
    106. D(H  20,C   5,C   4,C  11)     -1.6904         0.026959   
    107. D(H  20,C   5,C   3,C   2)     -1.4303         0.025120   
    108. D(H  20,C   5,C   4,C  10)    179.4302         0.026959   
    109. D(C   3,C   5,C   4,C  10)      0.0870         0.026959   
    110. D(C   3,C   5,C   4,C  11)    178.9665         0.026959   
    111. D(C   4,C   5,C   3,C   9)     -0.2170         0.025120   
    112. D(C   4,C   5,C   3,C   2)    177.9078         0.025120   
    113. D(H  20,C   5,C   3,C   9)   -179.5551         0.025120   
    114. D(C   6,C   7,C   2,C   3)   -178.7667         0.025561   
    115. D(C   6,C   7,C   2,C   8)      0.4575         0.025561   
    116. D(H  21,C   7,C   2,C   3)      2.5605         0.025561   
    117. D(H  21,C   7,C   6,C  13)    178.2382         0.026116   
    118. D(H  21,C   7,C   6,C  12)     -1.1849         0.026116   
    119. D(C   2,C   7,C   6,C  13)     -0.4243         0.026116   
    120. D(C   2,C   7,C   6,C  12)   -179.8474         0.026116   
    121. D(H  21,C   7,C   2,C   8)   -178.2153         0.025561   
    122. D(C  15,C   8,C   2,C   7)     -0.2194         0.023723   
    123. D(C  15,C   8,C   2,C   3)    178.9840         0.023723   
    124. D(O   0,C   8,C   2,C   7)   -179.1060         0.023723   
    125. D(C  15,C   8,O   0,H  32)     -2.2804         0.026557   
    126. D(O   0,C   8,C   2,C   3)      0.0973         0.023723   
    127. D(C   2,C   8,O   0,H  32)    176.5976         0.026557   
    128. D(H  22,C   9,C   3,C   5)   -178.8228         0.025683   
    129. D(C  14,C   9,C   3,C   5)      0.2495         0.025683   
    130. D(H  22,C   9,C   3,C   2)      3.0189         0.025683   
    131. D(C  14,C   9,C   3,C   2)   -177.9089         0.025683   
    132. D(C   4,C  10,O   1,H  33)   -179.9655         0.026841   
    133. D(C  14,C  10,C   4,C  11)   -178.8676         0.024901   
    134. D(C  14,C  10,C   4,C   5)      0.0149         0.024901   
    135. D(O   1,C  10,C   4,C  11)      1.3925         0.024901   
    136. D(O   1,C  10,C   4,C   5)   -179.7250         0.024901   
    137. D(C  14,C  10,O   1,H  33)      0.2990         0.026841   
    138. D(H  24,C  11,C   4,C   5)    143.4736         0.011649   
    139. D(H  23,C  11,C   4,C  10)   -154.7913         0.011649   
    140. D(H  23,C  11,C   4,C   5)     26.3605         0.011649   
    141. D(C  16,C  11,C   4,C  10)     84.8843         0.011649   
    142. D(C  16,C  11,C   4,C   5)    -93.9639         0.011649   
    143. D(H  26,C  12,C   6,C   7)    -58.1535         0.011397   
    144. D(H  25,C  12,C   6,C  13)      6.2274         0.011397   
    145. D(H  25,C  12,C   6,C   7)   -174.3706         0.011397   
    146. D(C  17,C  12,C   6,C  13)   -114.9742         0.011397   
    147. D(C  17,C  12,C   6,C   7)     64.4277         0.011397   
    148. D(H  27,C  13,C   6,C  12)     -0.4895         0.026796   
    149. D(H  27,C  13,C   6,C   7)   -179.9081         0.026796   
    150. D(C  15,C  13,C   6,C  12)    179.5674         0.026796   
    151. D(C  15,C  13,C   6,C   7)      0.1488         0.026796   
    152. D(H  28,C  14,C  10,C   4)    179.5674         0.026831   
    153. D(H  28,C  14,C  10,O   1)     -0.7039         0.026831   
    154. D(C   9,C  14,C  10,C   4)      0.0209         0.026831   
    155. D(C   9,C  14,C  10,O   1)    179.7496         0.026831   
    156. D(H  28,C  14,C   9,H  22)     -0.6258         0.027520   
    157. D(H  28,C  14,C   9,C   3)   -179.7035         0.027520   
    158. D(C  10,C  14,C   9,H  22)    178.9196         0.027520   
    159. D(C  10,C  14,C   9,C   3)     -0.1581         0.027520   
    160. D(C   8,C  15,C  13,C   6)      0.0699         0.027166   
    161. D(H  29,C  15,C   8,C   2)   -179.5322         0.026982   
    162. D(H  29,C  15,C   8,O   0)     -0.6751         0.026982   
    163. D(C  13,C  15,C   8,C   2)     -0.0325         0.026982   
    164. D(C  13,C  15,C   8,O   0)    178.8246         0.026982   
    165. D(H  29,C  15,C  13,H  27)     -0.3765         0.027166   
    166. D(H  29,C  15,C  13,C   6)    179.5670         0.027166   
    167. D(C   8,C  15,C  13,H  27)   -179.8736         0.027166   
    168. D(H  30,C  16,C  11,H  23)    -62.2758         0.012218   
    169. D(H  30,C  16,C  11,C   4)     57.6163         0.012218   
    170. D(C  18,C  16,C  11,H  24)      0.9104         0.012218   
    171. D(C  18,C  16,C  11,H  23)    117.9607         0.012218   
    172. D(C  18,C  16,C  11,C   4)   -122.1472         0.012218   
    173. D(H  31,C  17,C  12,H  25)    -64.4299         0.012481   
    174. D(H  31,C  17,C  12,C   6)     56.3826         0.012481   
    175. D(C  19,C  17,C  12,H  26)     -0.0644         0.012481   
    176. D(C  19,C  17,C  12,H  25)    115.9679         0.012481   
    177. D(C  19,C  17,C  12,C   6)   -123.2196         0.012481   
    178. D(H  35,C  18,C  16,H  30)   -179.0280         0.044782   
    179. D(H  35,C  18,C  16,C  11)      0.7270         0.044782   
    180. D(H  34,C  18,C  16,H  30)      0.5786         0.044782   
    181. D(H  34,C  18,C  16,C  11)   -179.6664         0.044782   
    182. D(H  37,C  19,C  17,H  31)   -179.5966         0.044468   
    183. D(H  37,C  19,C  17,C  12)     -0.0079         0.044468   
    184. D(H  36,C  19,C  17,H  31)      0.5411         0.044468   
    185. D(H  36,C  19,C  17,C  12)   -179.8702         0.044468   
    -----------------------------------------------------------------

Number of atoms                         .... 38
Number of degrees of freedom            .... 185


         *************************************************************
         *                GEOMETRY OPTIMIZATION CYCLE   1            *
         *************************************************************
---------------------------------
CARTESIAN COORDINATES (ANGSTROEM)
---------------------------------
  O      0.141958    2.096496   -1.717580
  O     -4.116775   -1.268372    1.416849
  C      1.018911    0.483457   -0.193227
  C     -0.338009    0.057396    0.231167
  C     -2.618152   -0.653701   -0.313495
  C     -1.354797   -0.213105   -0.691577
  C      3.453468    0.261362    0.046503
  C      2.149705   -0.105892    0.377905
  C      1.232458    1.488207   -1.154546
  C     -0.629611   -0.126138    1.584603
  C     -2.873105   -0.829034    1.052486
  C     -3.696959   -0.912513   -1.343927
  C      4.640623   -0.420270    0.700812
  C      3.624543    1.259218   -0.907605
  C     -1.881395   -0.565662    1.991628
  C      2.524687    1.865352   -1.502024
  C     -4.596407    0.278478   -1.555142
  C      4.747271   -1.883705    0.369211
  C     -5.913064    0.280534   -1.392435
  C      4.777076   -2.868521    1.258939
  H     -1.152605   -0.085919   -1.747194
  H      1.998920   -0.901695    1.098122
  H      0.123427    0.090351    2.331829
  H     -3.209112   -1.159949   -2.292305
  H     -4.299363   -1.774600   -1.052678
  H      5.553588    0.087729    0.372732
  H      4.590881   -0.302176    1.787611
  H      4.622342    1.571637   -1.193381
  H     -2.092165   -0.698230    3.048140
  H      2.670865    2.647803   -2.240173
  H     -4.095191    1.193620   -1.861058
  H      4.795785   -2.122902   -0.690381
  H      0.441080    2.793567   -2.312191
  H     -4.160869   -1.345880    2.376392
  H     -6.503766    1.171588   -1.566264
  H     -6.447165   -0.607603   -1.073300
  H      4.857269   -3.905179    0.956380
  H      4.724454   -2.673351    2.324874

----------------------------
CARTESIAN COORDINATES (A.U.)
----------------------------
  NO LB      ZA    FRAG     MASS         X           Y           Z
   0 O     8.0000    0    15.999    0.268262    3.961804   -3.245757
   1 O     8.0000    0    15.999   -7.779577   -2.396875    2.677456
   2 C     6.0000    0    12.011    1.925463    0.913601   -0.365147
   3 C     6.0000    0    12.011   -0.638745    0.108463    0.436842
   4 C     6.0000    0    12.011   -4.947591   -1.235316   -0.592419
   5 C     6.0000    0    12.011   -2.560195   -0.402710   -1.306891
   6 C     6.0000    0    12.011    6.526109    0.493903    0.087878
   7 C     6.0000    0    12.011    4.062354   -0.200107    0.714138
   8 C     6.0000    0    12.011    2.329008    2.812304   -2.181776
   9 C     6.0000    0    12.011   -1.189792   -0.238367    2.994467
  10 C     6.0000    0    12.011   -5.429381   -1.566648    1.988911
  11 C     6.0000    0    12.011   -6.986240   -1.724399   -2.539653
  12 C     6.0000    0    12.011    8.769506   -0.794196    1.324343
  13 C     6.0000    0    12.011    6.849393    2.379577   -1.715125
  14 C     6.0000    0    12.011   -3.555322   -1.068946    3.763631
  15 C     6.0000    0    12.011    4.770967    3.525005   -2.838414
  16 C     6.0000    0    12.011   -8.685950    0.526247   -2.938793
  17 C     6.0000    0    12.011    8.971042   -3.559686    0.697708
  18 C     6.0000    0    12.011  -11.174071    0.530133   -2.631321
  19 C     6.0000    0    12.011    9.027365   -5.420719    2.379050
  20 H     1.0000    0     1.008   -2.178108   -0.162363   -3.301717
  21 H     1.0000    0     1.008    3.777411   -1.703957    2.075150
  22 H     1.0000    0     1.008    0.233243    0.170738    4.406518
  23 H     1.0000    0     1.008   -6.064344   -2.191986   -4.331828
  24 H     1.0000    0     1.008   -8.124618   -3.353508   -1.989272
  25 H     1.0000    0     1.008   10.494761    0.165785    0.704361
  26 H     1.0000    0     1.008    8.675507   -0.571030    3.378095
  27 H     1.0000    0     1.008    8.734961    2.969963   -2.255163
  28 H     1.0000    0     1.008   -3.953619   -1.319464    5.760149
  29 H     1.0000    0     1.008    5.047204    5.003622   -4.233313
  30 H     1.0000    0     1.008   -7.738789    2.255615   -3.516891
  31 H     1.0000    0     1.008    9.062720   -4.011703   -1.304631
  32 H     1.0000    0     1.008    0.833520    5.279077   -4.369407
  33 H     1.0000    0     1.008   -7.862903   -2.543344    4.490730
  34 H     1.0000    0     1.008  -12.290337    2.213980   -2.959810
  35 H     1.0000    0     1.008  -12.183377   -1.148203   -2.028244
  36 H     1.0000    0     1.008    9.178907   -7.379719    1.807296
  37 H     1.0000    0     1.008    8.927924   -5.051901    4.393375

--------------------------------
INTERNAL COORDINATES (ANGSTROEM)
--------------------------------
 O      0   0   0     0.000000000000     0.00000000     0.00000000
 O      1   0   0     6.267678026133     0.00000000     0.00000000
 C      1   2   0     2.386335111771    64.36464753     0.00000000
 C      3   1   2     1.484207346110    92.33374644   359.05415957
 C      2   1   3     2.370185123073    20.94290151   269.07163455
 C      5   2   1     1.390373369596   148.78398455    47.64879240
 C      3   1   2     2.456392676289   119.18823877   180.24475726
 C      7   3   1     1.394453773371    28.40035757   179.76481193
 C      1   2   3     1.369749116846    95.56499342     0.53504656
 C      4   3   1     1.396605618589   120.37867335   224.90305585
 C      2   1   3     1.368390289097    22.62075253     3.15339714
 C      5   2   1     1.514132429391    90.11485175   228.37613061
 C      7   3   1     1.517260308296   149.11327391   180.02040259
 C      7   3   1     1.391152388000    89.43232114   359.38958283
 C     10   4   3     1.387736993487   120.94365348   182.09111850
 C     14   7   3     1.389393881074   120.59697685   359.94699621
 C     12   5   2     1.507340987376   112.67205339    85.59584235
 C     13   7   3     1.504318542906   113.41902529    64.28632612
 C     17  12   5     1.326674080936   125.18688790   237.85276666
 C     18  13   7     1.327541721606   125.13670060   236.78038494
 H      6   5   2     1.082304930151   118.17795600   179.15905681
 H      8   7   3     1.083859244539   118.77463081   178.66247963
 H     10   4   3     1.082718529350   119.82238881     3.01888654
 H     12   5   2     1.094824052695   108.09908878   205.92025725
 H     12   5   2     1.091288761739   110.28601276   323.03340184
 H     13   7   3     1.095082600280   108.34322287   185.48795828
 H     13   7   3     1.094327284235   110.13485048   301.70507432
 H     14   7   3     1.083917355986   120.05093823   179.89006487
 H     15  10   4     1.085456119746   119.95465442   180.29654026
 H     16  14   7     1.085569177652   119.91769065   179.56696145
 H     17  12   5     1.087329941338   115.42737784    57.61632636
 H     18  13   7     1.087337906456   115.59303639    56.38256962
 H      1   2   3     0.963816709525   155.18658882   186.10574497
 H      2   1   3     0.963677723782   124.90506073    54.81619992
 H     19  17  12     1.083107686652   121.52374268   180.33357709
 H     19  17  12     1.084388579905   121.57690410     0.72696991
 H     20  18  13     1.082881421021   121.63958537   180.12983081
 H     20  18  13     1.084932342424   121.59644913     0.00000000

---------------------------
INTERNAL COORDINATES (A.U.)
---------------------------
 O      0   0   0     0.000000000000     0.00000000     0.00000000
 O      1   0   0    11.844194964987     0.00000000     0.00000000
 C      1   2   0     4.509519825007    64.36464753     0.00000000
 C      3   1   2     2.804745410102    92.33374644   359.05415957
 C      2   1   3     4.479000769303    20.94290151   269.07163455
 C      5   2   1     2.627424892434   148.78398455    47.64879240
 C      3   1   2     4.641909435555   119.18823877   180.24475726
 C      7   3   1     2.635135738085    28.40035757   179.76481193
 C      1   2   3     2.588450703019    95.56499342     0.53504656
 C      4   3   1     2.639202136230   120.37867335   224.90305585
 C      2   1   3     2.585882890711    22.62075253     3.15339714
 C      5   2   1     2.861295622038    90.11485175   228.37613061
 C      7   3   1     2.867206456549   149.11327391   180.02040259
 C      7   3   1     2.628897023871    89.43232114   359.38958283
 C     10   4   3     2.622442863602   120.94365348   182.09111850
 C     14   7   3     2.625573927375   120.59697685   359.94699621
 C     12   5   2     2.848461656576   112.67205339    85.59584235
 C     13   7   3     2.842750064272   113.41902529    64.28632612
 C     17  12   5     2.507050681940   125.18688790   237.85276666
 C     18  13   7     2.508690285189   125.13670060   236.78038494
 H      6   5   2     2.045259911379   118.17795600   179.15905681
 H      8   7   3     2.048197139897   118.77463081   178.66247963
 H     10   4   3     2.046041500593   119.82238881     3.01888654
 H     12   5   2     2.068917624423   108.09908878   205.92025725
 H     12   5   2     2.062236892713   110.28601276   323.03340184
 H     13   7   3     2.069406208552   108.34322287   185.48795828
 H     13   7   3     2.067978868081   110.13485048   301.70507432
 H     14   7   3     2.048306954617   120.05093823   179.89006487
 H     15  10   4     2.051214796710   119.95465442   180.29654026
 H     16  14   7     2.051428445188   119.91769065   179.56696145
 H     17  12   5     2.054755806342   115.42737784    57.61632636
 H     18  13   7     2.054770858234   115.59303639    56.38256962
 H      1   2   3     1.821349624299   155.18658882   186.10574497
 H      2   1   3     1.821086979309   124.90506073    54.81619992
 H     19  17  12     2.046776901317   121.52374268   180.33357709
 H     19  17  12     2.049197438772   121.57690410     0.72696991
 H     20  18  13     2.046349321242   121.63958537   180.12983081
 H     20  18  13     2.050225001015   121.59644913     0.00000000

---------------------
BASIS SET INFORMATION
---------------------
There are 3 groups of distinct atoms

 Group   1 Type O   : 11s6p2d1f contracted to 5s3p2d1f pattern {62111/411/11/1}
 Group   2 Type C   : 11s6p2d1f contracted to 5s3p2d1f pattern {62111/411/11/1}
 Group   3 Type H   : 5s1p contracted to 3s1p pattern {311/1}

Atom   0O    basis set group =>   1
Atom   1O    basis set group =>   1
Atom   2C    basis set group =>   2
Atom   3C    basis set group =>   2
Atom   4C    basis set group =>   2
Atom   5C    basis set group =>   2
Atom   6C    basis set group =>   2
Atom   7C    basis set group =>   2
Atom   8C    basis set group =>   2
Atom   9C    basis set group =>   2
Atom  10C    basis set group =>   2
Atom  11C    basis set group =>   2
Atom  12C    basis set group =>   2
Atom  13C    basis set group =>   2
Atom  14C    basis set group =>   2
Atom  15C    basis set group =>   2
Atom  16C    basis set group =>   2
Atom  17C    basis set group =>   2
Atom  18C    basis set group =>   2
Atom  19C    basis set group =>   2
Atom  20H    basis set group =>   3
Atom  21H    basis set group =>   3
Atom  22H    basis set group =>   3
Atom  23H    basis set group =>   3
Atom  24H    basis set group =>   3
Atom  25H    basis set group =>   3
Atom  26H    basis set group =>   3
Atom  27H    basis set group =>   3
Atom  28H    basis set group =>   3
Atom  29H    basis set group =>   3
Atom  30H    basis set group =>   3
Atom  31H    basis set group =>   3
Atom  32H    basis set group =>   3
Atom  33H    basis set group =>   3
Atom  34H    basis set group =>   3
Atom  35H    basis set group =>   3
Atom  36H    basis set group =>   3
Atom  37H    basis set group =>   3
---------------------------------
AUXILIARY/J BASIS SET INFORMATION
---------------------------------
There are 3 groups of distinct atoms

 Group   1 Type O   : 12s5p4d2f1g contracted to 6s4p3d1f1g pattern {711111/2111/211/2/1}
 Group   2 Type C   : 12s5p4d2f1g contracted to 6s4p3d1f1g pattern {711111/2111/211/2/1}
 Group   3 Type H   : 5s2p1d contracted to 3s1p1d pattern {311/2/1}

Atom   0O    basis set group =>   1
Atom   1O    basis set group =>   1
Atom   2C    basis set group =>   2
Atom   3C    basis set group =>   2
Atom   4C    basis set group =>   2
Atom   5C    basis set group =>   2
Atom   6C    basis set group =>   2
Atom   7C    basis set group =>   2
Atom   8C    basis set group =>   2
Atom   9C    basis set group =>   2
Atom  10C    basis set group =>   2
Atom  11C    basis set group =>   2
Atom  12C    basis set group =>   2
Atom  13C    basis set group =>   2
Atom  14C    basis set group =>   2
Atom  15C    basis set group =>   2
Atom  16C    basis set group =>   2
Atom  17C    basis set group =>   2
Atom  18C    basis set group =>   2
Atom  19C    basis set group =>   2
Atom  20H    basis set group =>   3
Atom  21H    basis set group =>   3
Atom  22H    basis set group =>   3
Atom  23H    basis set group =>   3
Atom  24H    basis set group =>   3
Atom  25H    basis set group =>   3
Atom  26H    basis set group =>   3
Atom  27H    basis set group =>   3
Atom  28H    basis set group =>   3
Atom  29H    basis set group =>   3
Atom  30H    basis set group =>   3
Atom  31H    basis set group =>   3
Atom  32H    basis set group =>   3
Atom  33H    basis set group =>   3
Atom  34H    basis set group =>   3
Atom  35H    basis set group =>   3
Atom  36H    basis set group =>   3
Atom  37H    basis set group =>   3


           ************************************************************
           *        Program running with 26 parallel MPI-processes    *
           *              working on a common directory               *
           ************************************************************
------------------------------------------------------------------------------
                             ORCA STARTUP CALCULATIONS
                           -- RI-GTO INTEGRALS CHOSEN --
------------------------------------------------------------------------------
------------------------------------------------------------------------------
                   ___                                                        
                  /   \      - P O W E R E D   B Y -                         
                 /     \                                                     
                 |  |  |   _    _      __       _____    __    __             
                 |  |  |  | |  | |    /  \     |  _  \  |  |  /  |          
                  \  \/   | |  | |   /    \    | | | |  |  | /  /          
                 / \  \   | |__| |  /  /\  \   | |_| |  |  |/  /          
                |  |  |   |  __  | /  /__\  \  |    /   |      \           
                |  |  |   | |  | | |   __   |  |    \   |  |\   \          
                \     /   | |  | | |  |  |  |  | |\  \  |  | \   \       
                 \___/    |_|  |_| |__|  |__|  |_| \__\ |__|  \__/        
                                                                              
                      - O R C A' S   B I G   F R I E N D -                    
                                      &                                       
                       - I N T E G R A L  F E E D E R -                       
                                                                              
 v1 FN, 2020, v2 2021, v3 2022-2024                                           
------------------------------------------------------------------------------


----------------------
SHARK INTEGRAL PACKAGE
----------------------

Number of atoms                             ...     38
Number of basis functions                   ...    728
Number of shells                            ...    292
Maximum angular momentum                    ...      3
Integral batch strategy                     ... SHARK/LIBINT Hybrid
RI-J (if used) integral strategy            ... SPLIT-RIJ (Revised 2003 algorithm where possible)
Printlevel                                  ...      1
Contraction scheme used                     ... SEGMENTED contraction
Prescreening option                         ... SCHWARTZ
   Thresh                                   ... 2.500e-11
   Tcut                                     ... 2.500e-12
   Tpresel                                  ... 2.500e-12 
Coulomb Range Separation                    ... NOT USED
Exchange Range Separation                   ... NOT USED
Multipole approximations                    ... NOT USED
Finite Nucleus Model                        ... NOT USED
CABS basis                                  ... NOT available
Auxiliary Coulomb fitting basis             ... AVAILABLE
   # of basis functions in Aux-J            ...   1178
   # of shells in Aux-J                     ...    390
   Maximum angular momentum in Aux-J        ...      4
Auxiliary J/K fitting basis                 ... NOT available
Auxiliary Correlation fitting basis         ... NOT available
Auxiliary 'external' fitting basis          ... NOT available

Checking pre-screening integrals            ... done (  0.0 sec) Dimension = 292
Check shell pair data                       ... done (  0.0 sec)
Shell pair information
Shell pair cut-off parameter TPreSel        ...   2.5e-12
Total number of shell pairs                 ...     42778
Shell pairs after pre-screening             ...     29254
Total number of primitive shell pairs       ...    129780
Primitive shell pairs kept                  ...     59806
          la=0 lb=0:   7834 shell pairs
          la=1 lb=0:   8513 shell pairs
          la=1 lb=1:   2335 shell pairs
          la=2 lb=0:   4103 shell pairs
          la=2 lb=1:   2259 shell pairs
          la=2 lb=2:    563 shell pairs
          la=3 lb=0:   1922 shell pairs
          la=3 lb=1:   1079 shell pairs
          la=3 lb=2:    515 shell pairs
          la=3 lb=3:    131 shell pairs

Calculating one electron integrals          ... done (  0.0 sec)
Calculating RI/J V-Matrix + Cholesky decomp.... done (  0.1 sec)
Calculating Nuclear repulsion               ... done (  0.0 sec) ENN=   1411.268273201538 Eh

Diagonalization of the overlap matrix:
Smallest eigenvalue                        ... 6.560e-06
Time for diagonalization                   ...    0.065 sec
Threshold for overlap eigenvalues          ... 1.000e-07
Number of eigenvalues below threshold      ... 0
Time for construction of square roots      ...    0.034 sec
Total time needed                          ...    0.105 sec

-------------------
DFT GRID GENERATION
-------------------

General Integration Accuracy     IntAcc      ... 4.388
Radial Grid Type                 RadialGrid  ... OptM3 with GC (2021)
Angular Grid (max. ang.)         AngularGrid ... 4 (Lebedev-302)
Angular grid pruning method      GridPruning ... 4 (adaptive)
Weight generation scheme         WeightScheme... mBecke (2022)
Basis function cutoff            BFCut       ... 1.0000e-11
Integration weight cutoff        WCut        ... 1.0000e-14
Partially contracted basis set               ... off
Rotationally invariant grid construction     ... off
Angular grids for H and He will be reduced by one unit

Total number of grid points                  ...   177216
Total number of batches                      ...     2787
Average number of points per batch           ...       63
Average number of grid points per atom       ...     4664

--------------------
COSX GRID GENERATION
--------------------

GRIDX 1
-------
General Integration Accuracy     IntAcc      ... 3.816
Radial Grid Type                 RadialGrid  ... OptM3 with GC (2021)
Angular Grid (max. ang.)         AngularGrid ... 1 (Lebedev-50)
Angular grid pruning method      GridPruning ... 4 (adaptive)
Weight generation scheme         WeightScheme... mBecke (2022)
Basis function cutoff            BFCut       ... 1.0000e-11
Integration weight cutoff        WCut        ... 1.0000e-14
Partially contracted basis set               ... on
Rotationally invariant grid construction     ... off
Angular grids for H and He will be reduced by one unit

Total number of grid points                  ...    22555
Total number of batches                      ...      200
Average number of points per batch           ...      112
Average number of grid points per atom       ...      594
UseSFitting                                  ... on

GRIDX 2
-------
General Integration Accuracy     IntAcc      ... 4.020
Radial Grid Type                 RadialGrid  ... OptM3 with GC (2021)
Angular Grid (max. ang.)         AngularGrid ... 2 (Lebedev-110)
Angular grid pruning method      GridPruning ... 4 (adaptive)
Weight generation scheme         WeightScheme... mBecke (2022)
Basis function cutoff            BFCut       ... 1.0000e-11
Integration weight cutoff        WCut        ... 1.0000e-14
Partially contracted basis set               ... on
Rotationally invariant grid construction     ... off
Angular grids for H and He will be reduced by one unit

Total number of grid points                  ...    48648
Total number of batches                      ...      400
Average number of points per batch           ...      121
Average number of grid points per atom       ...     1280
UseSFitting                                  ... on

GRIDX 3
-------
General Integration Accuracy     IntAcc      ... 4.338
Radial Grid Type                 RadialGrid  ... OptM3 with GC (2021)
Angular Grid (max. ang.)         AngularGrid ... 3 (Lebedev-194)
Angular grid pruning method      GridPruning ... 4 (adaptive)
Weight generation scheme         WeightScheme... mBecke (2022)
Basis function cutoff            BFCut       ... 1.0000e-11
Integration weight cutoff        WCut        ... 1.0000e-14
Partially contracted basis set               ... on
Rotationally invariant grid construction     ... off
Angular grids for H and He will be reduced by one unit

Total number of grid points                  ...   106347
Total number of batches                      ...      852
Average number of points per batch           ...      124
Average number of grid points per atom       ...     2799
UseSFitting                                  ... on
Initializing property integral containers    ... done (  0.0 sec)

SHARK setup successfully completed in   2.2 seconds

Maximum memory used throughout the entire STARTUP-calculation: 69.5 MB


           ************************************************************
           *        Program running with 26 parallel MPI-processes    *
           *              working on a common directory               *
           ************************************************************
-------------------------------------------------------------------------------
                                 ORCA GUESS
                   Start orbitals & Density for SCF / CASSCF
-------------------------------------------------------------------------------

------------
SCF SETTINGS
------------
Hamiltonian:
 Density Functional     Method          .... DFT(GTOs)
 Exchange Functional    Exchange        .... B88
   X-Alpha parameter    XAlpha          ....  0.666667
   Becke's b parameter  XBeta           ....  0.004200
 Correlation Functional Correlation     .... LYP
 LDA part of GGA corr.  LDAOpt          .... VWN-5
 Gradients option       PostSCFGGA      .... off
 Hybrid DFT is turned on
   Fraction HF Exchange ScalHFX         ....  0.200000
   Scaling of DF-GGA-X  ScalDFX         ....  0.720000
   Scaling of DF-GGA-C  ScalDFC         ....  0.810000
   Scaling of DF-LDA-C  ScalLDAC        ....  1.000000
   Perturbative correction              ....  0.000000
   NL short-range parameter             ....  4.800000
 RI-approximation to the Coulomb term is turned on
   Number of AuxJ basis functions       .... 1178
   RIJ-COSX (HFX calculated with COS-X)).... on


General Settings:
 Integral files         IntName         .... honokiol
 Hartree-Fock type      HFTyp           .... RHF
 Total Charge           Charge          ....    0
 Multiplicity           Mult            ....    1
 Number of Electrons    NEL             ....  142
 Basis Dimension        Dim             ....  728
 Nuclear Repulsion      ENuc            ....   1411.2682732015 Eh

Convergence Acceleration:
 AO-DIIS                CNVDIIS         .... on
   Start iteration      DIISMaxIt       ....    12
   Startup error        DIISStart       ....  0.200000
   # of expansion vecs  DIISMaxEq       ....     5
   Bias factor          DIISBfac        ....   1.050
   Max. coefficient     DIISMaxC        ....  10.000
 MO-DIIS                CNVKDIIS        .... off
 Trust-Rad. Augm. Hess. CNVTRAH         .... auto
   Auto Start mean grad. ratio tolernc. ....  1.125000
   Auto Start start iteration           ....    50
   Auto Start num. interpolation iter.  ....    10
   Max. Number of Micro iterations      ....    24
   Max. Number of Macro iterations      .... Maxiter - #DIIS iter
   Number of Davidson start vectors     ....     2
   Converg. threshold    (grad. norm)   ....   1.000e-05
   Grad. Scal. Fac. for Micro threshold ....   0.100
   Minimum threshold for Micro iter.    ....   1.000e-02
   NR start threshold (gradient norm)   ....   1.000e-04
   Initial trust radius                 ....   0.400
   Minimum AH scaling param. (alpha)    ....   1.000
   Maximum AH scaling param. (alpha)    .... 1000.000
   Quad. conv. algorithm                .... NR
   White noise on init. David. guess    .... on
   Maximum white noise                  ....   0.010
   Pseudo random numbers                .... off
   Inactive MOs                         .... canonical
   Orbital update algorithm             .... Taylor
   Preconditioner                       .... Diag
   Full preconditioner red. dimension   ....   250
 SOSCF                  CNVSOSCF        .... on
   Start iteration      SOSCFMaxIt      ....   150
   Startup grad/error   SOSCFStart      ....  0.003300
   Hessian update       SOSCFHessUp     .... L-BFGS
 Level Shifting         CNVShift        .... on
   Level shift para.    LevelShift      ....    0.2500
   Turn off err/grad.   ShiftErr        ....    0.0010
 Zerner damping         CNVZerner       .... off
 Static damping         CNVDamp         .... on
   Fraction old density DampFac         ....    0.7000
   Max. Damping (<1)    DampMax         ....    0.9800
   Min. Damping (>=0)   DampMin         ....    0.0000
   Turn off err/grad.   DampErr         ....    0.1000

SCF Procedure:
 Maximum # iterations   MaxIter         ....   125
 SCF integral mode      SCFMode         .... Direct
   Integral package                     .... SHARK and LIBINT hybrid scheme
 Reset frequency        DirectResetFreq ....    20
 Integral Threshold     Thresh          ....  2.500e-11 Eh
 Primitive CutOff       TCut            ....  2.500e-12 Eh

Convergence Tolerance:
 Convergence Check Mode ConvCheckMode   .... Total+1el-Energy
 Convergence forced     ConvForced      .... 0
 Energy Change          TolE            ....  1.000e-08 Eh
 1-El. energy change                    ....  1.000e-05 Eh
 Orbital Gradient       TolG            ....  1.000e-05
 Orbital Rotation angle TolX            ....  1.000e-05
 DIIS Error             TolErr          ....  5.000e-07

------------------------------
INITIAL GUESS: MODEL POTENTIAL
------------------------------
Loading Hartree-Fock densities                     ... done
Calculating cut-offs                               ... done
Initializing the effective Hamiltonian             ... done
Setting up the integral package (SHARK)            ... done
Starting the Coulomb interaction                   ... done (   0.1 sec)
Making the grid                                    ... done (   0.2 sec)
Mapping shells                                     ... done
Starting the XC term evaluation                    ... done (   0.1 sec)
  promolecular density results
     # of electrons  =    141.997164488
     EX              =   -114.319398458
     EC              =     -4.772511772
     EX+EC           =   -119.091910230
Transforming the Hamiltonian                       ... done (   0.0 sec)
Diagonalizing the Hamiltonian                      ... done (   0.1 sec)
Back transforming the eigenvectors                 ... done (   0.0 sec)
Now organizing SCF variables                       ... done
                      ------------------
                      INITIAL GUESS DONE (   0.5 sec)
                      ------------------
             **** ENERGY FILE WAS UPDATED (honokiol.en.tmp) ****
Finished Guess after   1.2 sec
Maximum memory used throughout the entire GUESS-calculation: 53.8 MB


           ************************************************************
           *        Program running with 26 parallel MPI-processes    *
           *              working on a common directory               *
           ************************************************************

-------------------------------------------------------------------------------------------
                                      ORCA LEAN-SCF
                              memory conserving SCF solver
-------------------------------------------------------------------------------------------

--------------------
CPCM SOLVATION MODEL
--------------------
CPCM parameters:
  Epsilon                                         ...      80.1510
  Refrac                                          ...       1.3328
  Rsolv                                           ...       1.3000
  Surface type                                    ... GAUSSIAN VDW
  Discretization scheme                           ... Constant charge density
    Threshold for H atoms                         ...       5.0000 (charges/Ang^2)
    Threshold for non-H atoms                     ...       5.0000 (charges/Ang^2)
  Epsilon function type                           ...         CPCM
Solvent:                                          ... WATER
Radii:
  Scheme                                          ... Element-dependent radii
  Radius for O  used is    3.4469 Bohr (=   1.8240 Ang.)
  Radius for C  used is    3.8550 Bohr (=   2.0400 Ang.)
  Radius for H  used is    2.4944 Bohr (=   1.3200 Ang.)
Calculating surface                               ...        done! (  0.0s)
Cavity surface points                             ...         3423
Cavity Volume                                     ...    2303.1523
Cavity Surface-area                               ...    1209.5565
Calculating surface distance matrix               ...        done! (  0.1s)
Performing Cholesky decomposition & store         ...        done! (  0.3s)
Overall time for CPCM initialization              ...                 0.3s

----------------------------------------D-I-I-S--------------------------------------------
Iteration    Energy (Eh)           Delta-E    RMSDP     MaxDP     DIISErr   Damp  Time(sec)
-------------------------------------------------------------------------------------------
               ***  Starting incremental Fock matrix formation  ***
    1    -846.4436606004949226     0.00e+00  1.26e-03  8.52e-02  2.27e-01  0.700   3.3
    2    -846.6847989275877353    -2.41e-01  1.12e-03  9.13e-02  9.99e-02  0.700   2.3
                               ***Turning on AO-DIIS***
    3    -846.7907668866889708    -1.06e-01  4.64e-04  2.14e-02  4.03e-02  0.700   2.1
    4    -846.8518149821381940    -6.10e-02  7.67e-04  3.00e-02  2.16e-02  0.000   2.0
    5    -846.9822722017836441    -1.30e-01  2.14e-04  1.56e-02  5.48e-03  0.000   2.1
                              *** Initializing SOSCF ***
---------------------------------------S-O-S-C-F--------------------------------------
Iteration    Energy (Eh)           Delta-E    RMSDP     MaxDP     MaxGrad    Time(sec)
--------------------------------------------------------------------------------------
    6    -846.9828922139270162    -6.20e-04  8.46e-05  5.40e-03  1.65e-03     2.1
               *** Restarting incremental Fock matrix formation ***
    7    -846.9829195790082395    -2.74e-05  7.26e-05  3.76e-03  1.59e-04     3.2
    8    -846.9829192337608674     3.45e-07  1.51e-05  6.33e-04  2.93e-04     2.5
    9    -846.9829240357969411    -4.80e-06  1.39e-05  7.04e-04  4.74e-05     2.3
   10    -846.9829240118422149     2.40e-08  1.90e-06  1.02e-04  4.00e-05     2.2
   11    -846.9829242411640280    -2.29e-07  3.29e-06  2.25e-04  1.79e-05     1.9
   12    -846.9829242326861731     8.48e-09  1.31e-06  6.08e-05  1.98e-05     2.0
                 **** Energy Check signals convergence ****

               *****************************************************
               *                     SUCCESS                       *
               *           SCF CONVERGED AFTER  12 CYCLES          *
               *****************************************************

Recomputing exchange energy using gridx3       ... done (    4.205 sec)
Old exchange energy                            :    -23.256699312 Eh
New exchange energy                            :    -23.256702465 Eh
Exchange energy change after final integration :     -0.000003152 Eh
Total energy after final integration           :   -846.982927385 Eh
             **** ENERGY FILE WAS UPDATED (honokiol.en.tmp) ****

----------------
TOTAL SCF ENERGY
----------------

Total Energy       :       -846.98292738489636 Eh          -23047.57717 eV

Components:
Nuclear Repulsion  :       1411.26827320153802 Eh           38402.56206 eV
Electronic Energy  :      -2258.22733483369029 Eh          -61449.48981 eV
One Electron Energy:      -3952.10957386762539 Eh         -107542.36885 eV
Two Electron Energy:       1693.88223903393509 Eh           46092.87904 eV
CPCM Dielectric    :         -0.02386260053386 Eh              -0.64933 eV

Virial components:
Potential Energy   :      -1690.14676607123238 Eh          -45991.23165 eV
Kinetic Energy     :        843.16383868633613 Eh           22943.65448 eV
Virial Ratio       :          2.00452947401600

DFT components:
N(Alpha)           :       70.999974450132 electrons
N(Beta)            :       70.999974450132 electrons
N(Total)           :      141.999948900264 electrons
E(X)               :      -92.384804668262 Eh       
E(C)               :       -5.639280377617 Eh       
E(XC)              :      -98.024085045878 Eh       

CPCM Solvation Model Properties:
Surface-charge          :         -0.03773954015732
Corrected charge        :         -0.00000000000000
Outlying charge corr.   :          0.00007458217879 Eh               0.00203 eV
Free-energy (cav+disp)  :  This term is not implemented in the current solvation scheme

---------------
SCF CONVERGENCE
---------------

  Last Energy change         ...   -8.4779e-09  Tolerance :   1.0000e-08
  Last MAX-Density change    ...    6.0751e-05  Tolerance :   1.0000e-07
  Last RMS-Density change    ...    1.3061e-06  Tolerance :   5.0000e-09
  Last DIIS Error            ...    1.6508e-03  Tolerance :   5.0000e-07
  Last Orbital Gradient      ...    1.9799e-05  Tolerance :   1.0000e-05
  Last Orbital Rotation      ...    3.2011e-05  Tolerance :   1.0000e-05


----------------
ORBITAL ENERGIES
----------------

  NO   OCC          E(Eh)            E(eV) 
   0   2.0000     -19.154608      -521.2234 
   1   2.0000     -19.152893      -521.1767 
   2   2.0000     -10.233658      -278.4720 
   3   2.0000     -10.232584      -278.4428 
   4   2.0000     -10.181955      -277.0651 
   5   2.0000     -10.178329      -276.9664 
   6   2.0000     -10.178099      -276.9601 
   7   2.0000     -10.174370      -276.8587 
   8   2.0000     -10.172716      -276.8137 
   9   2.0000     -10.172361      -276.8040 
  10   2.0000     -10.172183      -276.7992 
  11   2.0000     -10.171761      -276.7877 
  12   2.0000     -10.170678      -276.7582 
  13   2.0000     -10.170358      -276.7495 
  14   2.0000     -10.169886      -276.7367 
  15   2.0000     -10.169859      -276.7359 
  16   2.0000     -10.169363      -276.7224 
  17   2.0000     -10.169335      -276.7217 
  18   2.0000     -10.157853      -276.4092 
  19   2.0000     -10.157771      -276.4070 
  20   2.0000      -1.060880       -28.8680 
  21   2.0000      -1.059671       -28.8351 
  22   2.0000      -0.868966       -23.6458 
  23   2.0000      -0.852264       -23.1913 
  24   2.0000      -0.804964       -21.9042 
  25   2.0000      -0.795860       -21.6565 
  26   2.0000      -0.771610       -20.9966 
  27   2.0000      -0.750998       -20.4357 
  28   2.0000      -0.742741       -20.2110 
  29   2.0000      -0.720901       -19.6167 
  30   2.0000      -0.680205       -18.5093 
  31   2.0000      -0.675154       -18.3719 
  32   2.0000      -0.632781       -17.2188 
  33   2.0000      -0.625206       -17.0127 
  34   2.0000      -0.598130       -16.2759 
  35   2.0000      -0.573909       -15.6168 
  36   2.0000      -0.554250       -15.0819 
  37   2.0000      -0.551771       -15.0145 
  38   2.0000      -0.542362       -14.7584 
  39   2.0000      -0.540584       -14.7101 
  40   2.0000      -0.502021       -13.6607 
  41   2.0000      -0.484078       -13.1724 
  42   2.0000      -0.478508       -13.0209 
  43   2.0000      -0.459069       -12.4919 
  44   2.0000      -0.456880       -12.4323 
  45   2.0000      -0.443046       -12.0559 
  46   2.0000      -0.437575       -11.9070 
  47   2.0000      -0.432507       -11.7691 
  48   2.0000      -0.430643       -11.7184 
  49   2.0000      -0.428924       -11.6716 
  50   2.0000      -0.411362       -11.1937 
  51   2.0000      -0.409313       -11.1380 
  52   2.0000      -0.408852       -11.1254 
  53   2.0000      -0.401803       -10.9336 
  54   2.0000      -0.393307       -10.7024 
  55   2.0000      -0.383064       -10.4237 
  56   2.0000      -0.378791       -10.3074 
  57   2.0000      -0.364052        -9.9064 
  58   2.0000      -0.356271        -9.6946 
  59   2.0000      -0.348952        -9.4955 
  60   2.0000      -0.345288        -9.3958 
  61   2.0000      -0.343028        -9.3343 
  62   2.0000      -0.334852        -9.1118 
  63   2.0000      -0.332339        -9.0434 
  64   2.0000      -0.326530        -8.8853 
  65   2.0000      -0.266162        -7.2426 
  66   2.0000      -0.264257        -7.1908 
  67   2.0000      -0.263359        -7.1664 
  68   2.0000      -0.251448        -6.8423 
  69   2.0000      -0.230171        -6.2633 
  70   2.0000      -0.210919        -5.7394 
  71   0.0000      -0.028296        -0.7700 
  72   0.0000      -0.016807        -0.4573 
  73   0.0000      -0.004643        -0.1263 
  74   0.0000       0.006966         0.1896 
  75   0.0000       0.012947         0.3523 
  76   0.0000       0.027819         0.7570 
  77   0.0000       0.046754         1.2723 
  78   0.0000       0.048135         1.3098 
  79   0.0000       0.057376         1.5613 
  80   0.0000       0.067644         1.8407 
  81   0.0000       0.071006         1.9322 
*Only the first 10 virtual orbitals were printed.

                    ********************************
                    * MULLIKEN POPULATION ANALYSIS *
                    ********************************

-----------------------
MULLIKEN ATOMIC CHARGES
-----------------------
   0 O :   -0.447740
   1 O :   -0.452458
   2 C :    0.058181
   3 C :    0.140433
   4 C :    0.037913
   5 C :   -0.260859
   6 C :    0.093664
   7 C :   -0.259933
   8 C :    0.210245
   9 C :   -0.230319
  10 C :    0.251488
  11 C :   -0.157273
  12 C :   -0.175803
  13 C :   -0.194511
  14 C :   -0.243901
  15 C :   -0.247634
  16 C :   -0.148949
  17 C :   -0.131575
  18 C :   -0.322487
  19 C :   -0.328285
  20 H :    0.122969
  21 H :    0.144231
  22 H :    0.148061
  23 H :    0.124300
  24 H :    0.116178
  25 H :    0.124552
  26 H :    0.116766
  27 H :    0.134231
  28 H :    0.140061
  29 H :    0.138114
  30 H :    0.129107
  31 H :    0.127948
  32 H :    0.352834
  33 H :    0.355174
  34 H :    0.136441
  35 H :    0.130948
  36 H :    0.136549
  37 H :    0.131340
Sum of atomic charges:   -0.0000000

--------------------------------
MULLIKEN REDUCED ORBITAL CHARGES
--------------------------------
  0 O s       :     3.775125  s :     3.775125
      pz      :     1.588151  p :     4.640360
      px      :     1.533132
      py      :     1.519077
      dz2     :     0.003233  d :     0.030564
      dxz     :     0.007426
      dyz     :     0.004930
      dx2y2   :     0.006952
      dxy     :     0.008023
      f0      :     0.000234  f :     0.001692
      f+1     :     0.000140
      f-1     :     0.000262
      f+2     :     0.000306
      f-2     :     0.000425
      f+3     :     0.000188
      f-3     :     0.000137

  1 O s       :     3.774867  s :     3.774867
      pz      :     1.388620  p :     4.645408
      px      :     1.478504
      py      :     1.778284
      dz2     :     0.011768  d :     0.030482
      dxz     :     0.004242
      dyz     :     0.001371
      dx2y2   :     0.006727
      dxy     :     0.006374
      f0      :     0.000634  f :     0.001701
      f+1     :     0.000091
      f-1     :     0.000078
      f+2     :     0.000170
      f-2     :     0.000134
      f+3     :     0.000283
      f-3     :     0.000311

  2 C s       :     3.271259  s :     3.271259
      pz      :     0.909213  p :     2.548170
      px      :     0.747304
      py      :     0.891653
      dz2     :     0.023317  d :     0.112534
      dxz     :     0.023057
      dyz     :     0.013068
      dx2y2   :     0.026659
      dxy     :     0.026433
      f0      :     0.000898  f :     0.009856
      f+1     :     0.001456
      f-1     :     0.001318
      f+2     :     0.001600
      f-2     :     0.001550
      f+3     :     0.001785
      f-3     :     0.001248

  3 C s       :     3.223830  s :     3.223830
      pz      :     0.809599  p :     2.505791
      px      :     0.742642
      py      :     0.953550
      dz2     :     0.027800  d :     0.120117
      dxz     :     0.033290
      dyz     :     0.022425
      dx2y2   :     0.015665
      dxy     :     0.020937
      f0      :     0.001599  f :     0.009829
      f+1     :     0.002418
      f-1     :     0.001339
      f+2     :     0.001169
      f-2     :     0.001115
      f+3     :     0.001099
      f-3     :     0.001089

  4 C s       :     3.225912  s :     3.225912
      pz      :     0.803099  p :     2.606646
      px      :     0.846470
      py      :     0.957077
      dz2     :     0.033676  d :     0.119673
      dxz     :     0.026124
      dyz     :     0.021024
      dx2y2   :     0.016320
      dxy     :     0.022530
      f0      :     0.001583  f :     0.009857
      f+1     :     0.002417
      f-1     :     0.001397
      f+2     :     0.001217
      f-2     :     0.001083
      f+3     :     0.001225
      f-3     :     0.000936

  5 C s       :     3.294415  s :     3.294415
      pz      :     0.971516  p :     2.874596
      px      :     0.947215
      py      :     0.955864
      dz2     :     0.023105  d :     0.084372
      dxz     :     0.018561
      dyz     :     0.007256
      dx2y2   :     0.016162
      dxy     :     0.019288
      f0      :     0.001206  f :     0.007475
      f+1     :     0.001506
      f-1     :     0.000394
      f+2     :     0.000979
      f-2     :     0.001044
      f+3     :     0.001344
      f-3     :     0.001002

  6 C s       :     3.182010  s :     3.182010
      pz      :     0.877790  p :     2.588533
      px      :     0.802069
      py      :     0.908675
      dz2     :     0.026681  d :     0.126018
      dxz     :     0.028844
      dyz     :     0.011502
      dx2y2   :     0.029115
      dxy     :     0.029875
      f0      :     0.001001  f :     0.009775
      f+1     :     0.001302
      f-1     :     0.001214
      f+2     :     0.001477
      f-2     :     0.001605
      f+3     :     0.001780
      f-3     :     0.001395

  7 C s       :     3.269924  s :     3.269924
      pz      :     1.001873  p :     2.899574
      px      :     0.929989
      py      :     0.967713
      dz2     :     0.008640  d :     0.082926
      dxz     :     0.021778
      dyz     :     0.011276
      dx2y2   :     0.019712
      dxy     :     0.021520
      f0      :     0.000495  f :     0.007509
      f+1     :     0.001286
      f-1     :     0.000754
      f+2     :     0.001471
      f-2     :     0.000797
      f+3     :     0.001564
      f-3     :     0.001141

  8 C s       :     3.069639  s :     3.069639
      pz      :     0.876771  p :     2.542743
      px      :     0.782941
      py      :     0.883031
      dz2     :     0.034899  d :     0.161979
      dxz     :     0.034804
      dyz     :     0.016573
      dx2y2   :     0.040911
      dxy     :     0.034793
      f0      :     0.001305  f :     0.015394
      f+1     :     0.002564
      f-1     :     0.001521
      f+2     :     0.002308
      f-2     :     0.002476
      f+3     :     0.002892
      f-3     :     0.002328

  9 C s       :     3.253345  s :     3.253345
      pz      :     0.943356  p :     2.885566
      px      :     0.971874
      py      :     0.970336
      dz2     :     0.014920  d :     0.083955
      dxz     :     0.029119
      dyz     :     0.016414
      dx2y2   :     0.010952
      dxy     :     0.012550
      f0      :     0.001105  f :     0.007453
      f+1     :     0.001750
      f-1     :     0.001263
      f+2     :     0.000825
      f-2     :     0.000529
      f+3     :     0.001162
      f-3     :     0.000818

 10 C s       :     3.046681  s :     3.046681
      pz      :     0.888980  p :     2.522585
      px      :     0.724233
      py      :     0.909372
      dz2     :     0.036643  d :     0.163788
      dxz     :     0.040767
      dyz     :     0.027451
      dx2y2   :     0.027016
      dxy     :     0.031912
      f0      :     0.001898  f :     0.015457
      f+1     :     0.003848
      f-1     :     0.001803
      f+2     :     0.001628
      f-2     :     0.001682
      f+3     :     0.002518
      f-3     :     0.002080

 11 C s       :     3.231090  s :     3.231090
      pz      :     0.951408  p :     2.838590
      px      :     0.943426
      py      :     0.943756
      dz2     :     0.014611  d :     0.082002
      dxz     :     0.017060
      dyz     :     0.015098
      dx2y2   :     0.016319
      dxy     :     0.018915
      f0      :     0.000637  f :     0.005590
      f+1     :     0.001321
      f-1     :     0.000209
      f+2     :     0.000295
      f-2     :     0.001200
      f+3     :     0.001085
      f-3     :     0.000843

 12 C s       :     3.239804  s :     3.239804
      pz      :     1.005357  p :     2.848726
      px      :     0.936346
      py      :     0.907022
      dz2     :     0.017986  d :     0.081716
      dxz     :     0.006803
      dyz     :     0.013360
      dx2y2   :     0.015977
      dxy     :     0.027590
      f0      :     0.001208  f :     0.005557
      f+1     :     0.000462
      f-1     :     0.000530
      f+2     :     0.000790
      f-2     :     0.000285
      f+3     :     0.001077
      f-3     :     0.001206

 13 C s       :     3.234252  s :     3.234252
      pz      :     0.955702  p :     2.868619
      px      :     0.962990
      py      :     0.949928
      dz2     :     0.021529  d :     0.084210
      dxz     :     0.014989
      dyz     :     0.010331
      dx2y2   :     0.021111
      dxy     :     0.016250
      f0      :     0.000701  f :     0.007430
      f+1     :     0.000974
      f-1     :     0.001233
      f+2     :     0.001238
      f-2     :     0.001216
      f+3     :     0.001185
      f-3     :     0.000883

 14 C s       :     3.278003  s :     3.278003
      pz      :     0.950263  p :     2.884875
      px      :     0.905052
      py      :     1.029561
      dz2     :     0.014522  d :     0.073749
      dxz     :     0.020550
      dyz     :     0.007838
      dx2y2   :     0.013851
      dxy     :     0.016989
      f0      :     0.001154  f :     0.007274
      f+1     :     0.001448
      f-1     :     0.000481
      f+2     :     0.000951
      f-2     :     0.001016
      f+3     :     0.001286
      f-3     :     0.000937

 15 C s       :     3.280110  s :     3.280110
      pz      :     0.995571  p :     2.885850
      px      :     0.889529
      py      :     1.000750
      dz2     :     0.009043  d :     0.074342
      dxz     :     0.019063
      dyz     :     0.010698
      dx2y2   :     0.017458
      dxy     :     0.018081
      f0      :     0.000429  f :     0.007332
      f+1     :     0.001269
      f-1     :     0.000879
      f+2     :     0.001518
      f-2     :     0.000759
      f+3     :     0.001444
      f-3     :     0.001034

 16 C s       :     3.246815  s :     3.246815
      pz      :     0.949295  p :     2.813841
      px      :     0.932079
      py      :     0.932468
      dz2     :     0.003567  d :     0.081280
[...]
 H     16  14   7     2.049959396491   120.30975172   179.23894667
 H     17  12   5     2.055611079714   115.41243741    55.96572605
 H     18  13   7     2.055908130934   115.59030432    58.06564573
 H      1   2   3     1.826836488755   154.82887981   181.49894250
 H      2   1   3     1.827024153872   125.09097783    55.45017255
 H     19  17  12     2.047859102530   121.44695447   180.79645649
 H     19  17  12     2.050806763714   121.55778034     0.70355831
 H     20  18  13     2.047865505140   121.50544871   180.26881699
 H     20  18  13     2.051004964147   121.47993826     0.18013079



           ************************************************************
           *        Program running with 26 parallel MPI-processes    *
           *              working on a common directory               *
           ************************************************************
------------------------------------------------------------------------------
                   ___                                                        
                  /   \      - P O W E R E D   B Y -                         
                 /     \                                                     
                 |  |  |   _    _      __       _____    __    __             
                 |  |  |  | |  | |    /  \     |  _  \  |  |  /  |          
                  \  \/   | |  | |   /    \    | | | |  |  | /  /          
                 / \  \   | |__| |  /  /\  \   | |_| |  |  |/  /          
                |  |  |   |  __  | /  /__\  \  |    /   |      \           
                |  |  |   | |  | | |   __   |  |    \   |  |\   \          
                \     /   | |  | | |  |  |  |  | |\  \  |  | \   \       
                 \___/    |_|  |_| |__|  |__|  |_| \__\ |__|  \__/        
                                                                              
                      - O R C A' S   B I G   F R I E N D -                    
                                      &                                       
                       - I N T E G R A L  F E E D E R -                       
                                                                              
 v1 FN, 2020, v2 2021, v3 2022-2024                                           
------------------------------------------------------------------------------


----------------------
SHARK INTEGRAL PACKAGE
----------------------

Number of atoms                             ...     38
Number of basis functions                   ...    728
Number of shells                            ...    292
Maximum angular momentum                    ...      3
Integral batch strategy                     ... SHARK/LIBINT Hybrid
RI-J (if used) integral strategy            ... SPLIT-RIJ (Revised 2003 algorithm where possible)
Printlevel                                  ...      1
Contraction scheme used                     ... SEGMENTED contraction
Prescreening option                         ... SCHWARTZ
   Thresh                                   ... 2.500e-11
   Tcut                                     ... 2.500e-12
   Tpresel                                  ... 2.500e-12 
Coulomb Range Separation                    ... NOT USED
Exchange Range Separation                   ... NOT USED
Multipole approximations                    ... NOT USED
Finite Nucleus Model                        ... NOT USED
CABS basis                                  ... NOT available
Auxiliary Coulomb fitting basis             ... AVAILABLE
   # of basis functions in Aux-J            ...   1178
   # of shells in Aux-J                     ...    390
   Maximum angular momentum in Aux-J        ...      4
Auxiliary J/K fitting basis                 ... NOT available
Auxiliary Correlation fitting basis         ... NOT available
Auxiliary 'external' fitting basis          ... NOT available

Checking pre-screening integrals            ... done (  0.0 sec) Dimension = 292
Check shell pair data                       ... done (  0.0 sec)
Shell pair information
Shell pair cut-off parameter TPreSel        ...   2.5e-12
Total number of shell pairs                 ...     42778
Shell pairs after pre-screening             ...     29219
Total number of primitive shell pairs       ...    129780
Primitive shell pairs kept                  ...     59725
          la=0 lb=0:   7819 shell pairs
          la=1 lb=0:   8506 shell pairs
          la=1 lb=1:   2334 shell pairs
          la=2 lb=0:   4101 shell pairs
          la=2 lb=1:   2253 shell pairs
          la=2 lb=2:    559 shell pairs
          la=3 lb=0:   1923 shell pairs
          la=3 lb=1:   1078 shell pairs
          la=3 lb=2:    515 shell pairs
          la=3 lb=3:    131 shell pairs

Calculating one electron integrals          ... done (  0.0 sec)
Calculating RI/J V-Matrix + Cholesky decomp.... done (  0.1 sec)
Calculating Nuclear repulsion               ... done (  0.0 sec) ENN=   1409.272117808820 Eh

Diagonalization of the overlap matrix:
Smallest eigenvalue                        ... 6.753e-06
Time for diagonalization                   ...    0.064 sec
Threshold for overlap eigenvalues          ... 1.000e-07
Number of eigenvalues below threshold      ... 0
Time for construction of square roots      ...    0.034 sec
Total time needed                          ...    0.103 sec

-------------------
DFT GRID GENERATION
-------------------

General Integration Accuracy     IntAcc      ... 4.388
Radial Grid Type                 RadialGrid  ... OptM3 with GC (2021)
Angular Grid (max. ang.)         AngularGrid ... 4 (Lebedev-302)
Angular grid pruning method      GridPruning ... 4 (adaptive)
Weight generation scheme         WeightScheme... mBecke (2022)
Basis function cutoff            BFCut       ... 1.0000e-11
Integration weight cutoff        WCut        ... 1.0000e-14
Partially contracted basis set               ... off
Rotationally invariant grid construction     ... off
Angular grids for H and He will be reduced by one unit

Total number of grid points                  ...   177219
Total number of batches                      ...     2788
Average number of points per batch           ...       63
Average number of grid points per atom       ...     4664

--------------------
COSX GRID GENERATION
--------------------

GRIDX 1
-------
General Integration Accuracy     IntAcc      ... 3.816
Radial Grid Type                 RadialGrid  ... OptM3 with GC (2021)
Angular Grid (max. ang.)         AngularGrid ... 1 (Lebedev-50)
Angular grid pruning method      GridPruning ... 4 (adaptive)
Weight generation scheme         WeightScheme... mBecke (2022)
Basis function cutoff            BFCut       ... 1.0000e-11
Integration weight cutoff        WCut        ... 1.0000e-14
Partially contracted basis set               ... on
Rotationally invariant grid construction     ... off
Angular grids for H and He will be reduced by one unit

Total number of grid points                  ...    22560
Total number of batches                      ...      200
Average number of points per batch           ...      112
Average number of grid points per atom       ...      594
UseSFitting                                  ... on

GRIDX 2
-------
General Integration Accuracy     IntAcc      ... 4.020
Radial Grid Type                 RadialGrid  ... OptM3 with GC (2021)
Angular Grid (max. ang.)         AngularGrid ... 2 (Lebedev-110)
Angular grid pruning method      GridPruning ... 4 (adaptive)
Weight generation scheme         WeightScheme... mBecke (2022)
Basis function cutoff            BFCut       ... 1.0000e-11
Integration weight cutoff        WCut        ... 1.0000e-14
Partially contracted basis set               ... on
Rotationally invariant grid construction     ... off
Angular grids for H and He will be reduced by one unit

Total number of grid points                  ...    48636
Total number of batches                      ...      398
Average number of points per batch           ...      122
Average number of grid points per atom       ...     1280
UseSFitting                                  ... on

GRIDX 3
-------
General Integration Accuracy     IntAcc      ... 4.338
Radial Grid Type                 RadialGrid  ... OptM3 with GC (2021)
Angular Grid (max. ang.)         AngularGrid ... 3 (Lebedev-194)
Angular grid pruning method      GridPruning ... 4 (adaptive)
Weight generation scheme         WeightScheme... mBecke (2022)
Basis function cutoff            BFCut       ... 1.0000e-11
Integration weight cutoff        WCut        ... 1.0000e-14
Partially contracted basis set               ... on
Rotationally invariant grid construction     ... off
Angular grids for H and He will be reduced by one unit

Total number of grid points                  ...   106334
Total number of batches                      ...      852
Average number of points per batch           ...      124
Average number of grid points per atom       ...     2798
UseSFitting                                  ... on
Initializing property integral containers    ... done (  0.0 sec)

SHARK setup successfully completed in   2.3 seconds

Maximum memory used throughout the entire STARTUP-calculation: 73.6 MB


           ************************************************************
           *        Program running with 26 parallel MPI-processes    *
           *              working on a common directory               *
           ************************************************************
Occupation numbers will be reassigned to an Aufbau configuration
             **** ENERGY FILE WAS UPDATED (honokiol.en.tmp) ****
Finished Guess after   1.0 sec
Maximum memory used throughout the entire GUESS-calculation: 62.9 MB


           ************************************************************
           *        Program running with 26 parallel MPI-processes    *
           *              working on a common directory               *
           ************************************************************
--------------------
CPCM SOLVATION MODEL
--------------------
CPCM parameters:
  Epsilon                                         ...      80.1510
  Refrac                                          ...       1.3328
  Rsolv                                           ...       1.3000
  Surface type                                    ... GAUSSIAN VDW
  Discretization scheme                           ... Constant charge density
    Threshold for H atoms                         ...       5.0000 (charges/Ang^2)
    Threshold for non-H atoms                     ...       5.0000 (charges/Ang^2)
  Epsilon function type                           ...         CPCM
Solvent:                                          ... WATER
Radii:
  Scheme                                          ... Element-dependent radii
  Radius for O  used is    3.4469 Bohr (=   1.8240 Ang.)
  Radius for C  used is    3.8550 Bohr (=   2.0400 Ang.)
  Radius for H  used is    2.4944 Bohr (=   1.3200 Ang.)
Calculating surface                               ...        done! (  0.0s)
Cavity surface points                             ...         3429
Cavity Volume                                     ...    2304.5141
Cavity Surface-area                               ...    1211.8612
Calculating surface distance matrix               ...        done! (  0.1s)
Performing Cholesky decomposition & store         ...        done! (  0.3s)
Overall time for CPCM initialization              ...                 0.3s

----------------------------------------D-I-I-S--------------------------------------------
Iteration    Energy (Eh)           Delta-E    RMSDP     MaxDP     DIISErr   Damp  Time(sec)
-------------------------------------------------------------------------------------------
               ***  Starting incremental Fock matrix formation  ***
    1    -846.9820936596977390     0.00e+00  3.78e-05  1.84e-03  1.19e-02  0.700   3.3
    2    -846.9823629228724258    -2.69e-04  3.38e-05  1.61e-03  9.17e-03  0.700   2.0
                               ***Turning on AO-DIIS***
    3    -846.9825753268744393    -2.12e-04  2.69e-05  1.24e-03  6.76e-03  0.700   1.8
    4    -846.9827325167509571    -1.57e-04  6.80e-05  3.05e-03  4.83e-03  0.000   1.8
                              *** Initializing SOSCF ***
---------------------------------------S-O-S-C-F--------------------------------------
Iteration    Energy (Eh)           Delta-E    RMSDP     MaxDP     MaxGrad    Time(sec)
--------------------------------------------------------------------------------------
    5    -846.9831266687663174    -3.94e-04  5.04e-06  2.00e-04  2.54e-04     2.0
               *** Restarting incremental Fock matrix formation ***
    6    -846.9831288091811530    -2.14e-06  8.64e-06  4.09e-04  7.22e-05     3.2
    7    -846.9831290536178585    -2.44e-07  1.41e-06  7.44e-05  1.22e-05     2.1
    8    -846.9831290603358411    -6.72e-09  1.40e-06  6.95e-05  9.28e-06     1.8
                 **** Energy Check signals convergence ****

               *****************************************************
               *                     SUCCESS                       *
               *           SCF CONVERGED AFTER   8 CYCLES          *
               *****************************************************

Recomputing exchange energy using gridx3       ... done (    4.099 sec)
Old exchange energy                            :    -23.252671320 Eh
New exchange energy                            :    -23.252680111 Eh
Exchange energy change after final integration :     -0.000008791 Eh
Total energy after final integration           :   -846.983137851 Eh
             **** ENERGY FILE WAS UPDATED (honokiol.en.tmp) ****

----------------
TOTAL SCF ENERGY
----------------

Total Energy       :       -846.98313785142795 Eh          -23047.58290 eV

Components:
Nuclear Repulsion  :       1409.27211780881976 Eh           38348.24391 eV
Electronic Energy  :      -2256.23083370023960 Eh          -61395.16225 eV
One Electron Energy:      -3948.14165134455243 Eh         -107434.39619 eV
Two Electron Energy:       1691.91081764431306 Eh           46039.23394 eV
CPCM Dielectric    :         -0.02441316891583 Eh              -0.66432 eV

Virial components:
Potential Energy   :      -1690.06684007284548 Eh          -45989.05676 eV
Kinetic Energy     :        843.08370222141752 Eh           22941.47386 eV
Virial Ratio       :          2.00462520580072

DFT components:
N(Alpha)           :       70.999953844978 electrons
N(Beta)            :       70.999953844978 electrons
N(Total)           :      141.999907689955 electrons
E(X)               :      -92.370564141912 Eh       
E(C)               :       -5.638009217701 Eh       
E(XC)              :      -98.008573359613 Eh       

CPCM Solvation Model Properties:
Surface-charge          :         -0.03780683572076
Corrected charge        :          0.00000000000000
Outlying charge corr.   :          0.00007475282725 Eh               0.00203 eV
Free-energy (cav+disp)  :  This term is not implemented in the current solvation scheme

---------------
SCF CONVERGENCE
---------------

  Last Energy change         ...    6.7180e-09  Tolerance :   1.0000e-08
  Last MAX-Density change    ...    6.9532e-05  Tolerance :   1.0000e-07
  Last RMS-Density change    ...    1.4044e-06  Tolerance :   5.0000e-09
  Last DIIS Error            ...    2.5396e-04  Tolerance :   5.0000e-07
  Last Orbital Gradient      ...    9.2752e-06  Tolerance :   1.0000e-05
  Last Orbital Rotation      ...    1.4910e-05  Tolerance :   1.0000e-05


Total SCF time: 0 days 0 hours 0 min 23 sec 
Finished LeanSCF after  23.9 sec

Maximum memory used throughout the entire LEANSCF-calculation: 105.5 MB

-------------------------   --------------------
FINAL SINGLE POINT ENERGY      -846.983137851428
-------------------------   --------------------



           ************************************************************
           *        Program running with 26 parallel MPI-processes    *
           *              working on a common directory               *
           ************************************************************
------------------------------------------------------------------------------
                         ORCA SCF GRADIENT CALCULATION
------------------------------------------------------------------------------

Nuc. rep. gradient        (SHARK) ... done (  0.0 sec)
HCore & Overlap gradient  (SHARK) ... done (  0.2 sec)
Split-RIJ-J gradient      (SHARK) ... done (  0.8 sec)
COSX-gradient                     ... done (  8.1 sec)
XC gradient                       ... done (  1.3 sec)
CPCM gradient                     ... done (  1.3 sec)

------------------
CARTESIAN GRADIENT
------------------

   1   O   :    0.000359014   -0.000084987    0.000108439
   2   O   :    0.000440971    0.000200480    0.000175226
   3   C   :    0.000120087    0.000256960   -0.000239048
   4   C   :    0.000019124   -0.000081259   -0.000039453
   5   C   :   -0.000233400   -0.000090481    0.000255300
   6   C   :    0.000321110    0.000106029   -0.000139360
   7   C   :    0.000078501   -0.000098705    0.000184686
   8   C   :   -0.000056588   -0.000308075    0.000005804
   9   C   :   -0.000568326   -0.000001407    0.000092852
  10   C   :   -0.000010727    0.000112836   -0.000101654
  11   C   :   -0.000421257   -0.000144720   -0.000325574
  12   C   :    0.000007792   -0.000137563   -0.000062830
  13   C   :    0.000097480    0.000024465    0.000172082
  14   C   :   -0.000078674    0.000102573    0.000085785
  15   C   :    0.000217065    0.000062383    0.000416165
  16   C   :    0.000389934    0.000203290   -0.000202842
  17   C   :    0.000300127   -0.000005452   -0.000053983
  18   C   :   -0.000012175    0.000216652   -0.000096257
  19   C   :   -0.000328432    0.000038678    0.000008778
  20   C   :    0.000056159   -0.000275120    0.000210878
  21   H   :   -0.000087243   -0.000034744   -0.000065103
  22   H   :    0.000014747    0.000051552    0.000046174
  23   H   :   -0.000041864   -0.000061654    0.000078895
  24   H   :    0.000048461    0.000116992    0.000014610
  25   H   :   -0.000029891    0.000006010   -0.000015731
  26   H   :   -0.000034219   -0.000098483   -0.000236632
  27   H   :   -0.000080142   -0.000011212    0.000000833
  28   H   :    0.000000374   -0.000032412   -0.000043497
  29   H   :   -0.000094287   -0.000035003   -0.000062166
  30   H   :   -0.000137098   -0.000020253   -0.000003672
  31   H   :   -0.000017135   -0.000006220   -0.000029822
  32   H   :    0.000011072   -0.000019388    0.000010268
  33   H   :   -0.000127504    0.000023513   -0.000055365
  34   H   :   -0.000140859   -0.000066122   -0.000012962
  35   H   :    0.000028537    0.000016398    0.000011799
  36   H   :    0.000012682   -0.000022211   -0.000025121
  37   H   :    0.000013214    0.000022974   -0.000055797
  38   H   :   -0.000036628    0.000073687   -0.000011705

Difference to translation invariance:
           :   -0.0000000000    0.0000000000   -0.0000000000

Difference to rotation invariance:
           :   -0.0003268967   -0.0002259344   -0.0004885142

Norm of the Cartesian gradient     ...    0.0016649384
RMS gradient                       ...    0.0001559358
MAX gradient                       ...    0.0005683258

-------
TIMINGS
-------

Total SCF gradient time     ....       11.681 sec

Densities                   ....       0.014 sec  (  0.1%)
One electron gradient       ....       0.159 sec  (  1.4%)
RI-J Coulomb gradient       ....       0.760 sec  (  6.5%)
COSX gradient               ....       8.055 sec  ( 69.0%)
XC gradient                 ....       1.335 sec  ( 11.4%)
CPCM gradient               ....       1.350 sec  ( 11.6%)
   A-Matrix (El+Nuc)        ....       0.315 sec  (  2.7%)
   Potential                ....       1.034 sec  (  8.9%)

Maximum memory used throughout the entire SCFGRAD-calculation: 118.6 MB
