
                                 *****************
                                 * O   R   C   A *
                                 *****************

                                            #,                                       
                                            ###                                      
                                            ####                                     
                                            #####                                    
                                            ######                                   
                                           ########,                                 
                                     ,,################,,,,,                         
                               ,,#################################,,                 
                          ,,##########################################,,             
                       ,#########################################, ''#####,          
                    ,#############################################,,   '####,        
                  ,##################################################,,,,####,       
                ,###########''''           ''''###############################       
              ,#####''   ,,,,##########,,,,          '''####'''          '####       
            ,##' ,,,,###########################,,,                        '##       
           ' ,,###''''                  '''############,,,                           
         ,,##''                                '''############,,,,        ,,,,,,###''
      ,#''                                            '''#######################'''  
     '                                                          ''''####''''         
             ,#######,   #######,   ,#######,      ##                                
            ,#'     '#,  ##    ##  ,#'     '#,    #''#        ,####,   ,####,        
            ##       ##  ##   ,#'  ##            #'  '#       #'       #'  '#        
            ##       ##  #######   ##           ,######,      #####,   #    #        
            '#,     ,#'  ##    ##  '#,     ,#' ,#      #,     #,   #   #,  ,#        
             '#######'   ##     ##  '#######'  #'      '#     '####' # '####'        



                #########################################################
                #                        -***-                          #
                #          Department of theory and spectroscopy        #
                #                                                       #
                #                      Frank Neese                      #
                #                                                       #
                #     Directorship, Architecture, Infrastructure        #
                #                    SHARK, DRIVERS                     #
                #        Core code/Algorithms in most modules           #
                #                                                       #
                #        Max Planck Institute fuer Kohlenforschung      #
                #                Kaiser Wilhelm Platz 1                 #
                #                 D-45470 Muelheim/Ruhr                 #
                #                      Germany                          #
                #                                                       #
                #                  All rights reserved                  #
                #                        -***-                          #
                #########################################################


                         Program Version 6.0.1  -  RELEASE   -


 With contributions from (in alphabetic order):
[Max-Planck-Institut fuer Kohlenforschung]                               
  Daniel Aravena         : Magnetic Suceptibility                        
  Michael Atanasov       : Ab Initio Ligand Field Theory (pilot matlab implementation)
  Alexander A. Auer      : GIAO ZORA, VPT2 properties, NMR spectrum      
  Ute Becker             : All parallelization in ORCA, NUMFREQ, NUMCALC 
  Giovanni Bistoni       : ED, misc. LED, open-shell LED, HFLD           
  Martin Brehm           : Molecular dynamics                            
  Dmytro Bykov           : pre 5.0 version of the SCF Hessian            
  Marcos Casanova-Páez   : Triplet and SCS-CIS(D). UHF-(DLPNO)-IP/EA/STEOM-CCSD. UHF-CVS-IP/STEOM-CCSD   
  Vijay G. Chilkuri      : MRCI spin determinant printing, contributions to CSF-ICE 
  Pauline Colinet        : FMM embedding                                 
  Dipayan Datta          : RHF DLPNO-CCSD density                        
  Achintya Kumar Dutta   : EOM-CC, STEOM-CC                              
  Nicolas Foglia         : Exact transition moments, OPA infrastructure, MCD improvements    
  Dmitry Ganyushin       : Spin-Orbit,Spin-Spin,Magnetic field MRCI      
  Miquel Garcia-Rates    : C-PCM and meta-GGA Hessian, CCSD/C-PCM, Gaussian charge scheme 
  Tiago L. C. Gouveia    : GS-ROHF, GS-ROCIS                             
  Yang Guo               : DLPNO-NEVPT2, F12-NEVPT2, CIM, IAO-localization        
  Andreas Hansen         : Spin unrestricted coupled pair/coupled cluster methods 
  Ingolf Harden          : AUTO-CI MPn and infrastructure                
  Benjamin Helmich-Paris : MC-RPA, TRAH-(SCF,CASSCF), AVAS, COSX integrals, SCF dyn. polar. 
  Lee Huntington         : MR-EOM, pCC                                   
  Robert Izsak           : Overlap fitted RIJCOSX, COSX-SCS-MP3, EOM     
  Riya Kayal             : Wick's Theorem for AUTO-CI, AUTO-CI UHF-CCSDT 
  Emily Kempfer          : AUTO-CI, RHF CISDT and CCSDT                  
  Christian Kollmar      : KDIIS, OOCD, Brueckner-CCSD(T), CCSD density, CASPT2, CASPT2-K, improved NEVPT2 
  Axel Koslowski         : Symmetry handling                             
  Simone Kossmann        : meta-GGA functionals, TD-DFT gradient, OOMP2, (MP2 Hessian; deprecated post 5.0) 
  Lucas Lang             : DCDCAS                                        
  Marvin Lechner         : AUTO-CI (C++ implementation), FIC-MRCC        
  Spencer Leger          : CASSCF response                               
  Dagmar Lenk            : GEPOL surface, SMD, ORCA-2-JSON               
  Dimitrios Liakos       : Extrapolation schemes; Compound Job, initial MDCI parallelization 
  Dimitrios Manganas     : Further ROCIS development; embedding schemes. LFT, Crystal Embedding 
  Dimitrios Pantazis     : SARC Basis sets                               
  Anastasios Papadopoulos: AUTO-CI, single reference methods and gradients 
  Taras Petrenko         : pre 6.0 DFT Hessian and TD-DFT gradient, (ASA, deprecated), ECA, 1-Electron XAS/XES, NRVS 
  Peter Pinski           : DLPNO-MP2, DLPNO-MP2 Gradient                 
  Christoph Reimann      : Effective Core Potentials                     
  Marius Retegan         : Local ZFS, SOC                                
  Christoph Riplinger    : Optimizer, TS searches, QM/MM, DLPNO-CCSD(T), (RO)-DLPNO pert. Triples 
  Michael Roemelt        : Original ROCIS implementation                 
  Masaaki Saitow         : Open-shell DLPNO-CCSD energy and density      
  Barbara Sandhoefer     : DKH picture change effects                    
  Kantharuban Sivalingam : CASSCF convergence/infrastructure, NEVPT2 and variants, FIC-MRCI 
  Bernardo de Souza      : ESD, SOC TD-DFT                               
  Georgi L. Stoychev     : AutoAux, RI-MP2 NMR, DLPNO-MP2 response, X2C  
  Van Anh Tran           : RI-MP2 g-tensors                              
  Willem Van den Heuvel  : Paramagnetic NMR                              
  Zikuan Wang            : NOTCH, Electric field optimization            
  Frank Wennmohs         : Technical directorship and infrastructure     
  Hang Xu                : AUTO-CI-Response properties                   
                                                                         
[FACCTs GmbH]                                                            
  Markus Bursch, Miquel Garcia-Rates, Christoph Riplinger, Bernardo de Souza, Georgi L. Stoychev 
                                                                 
  APM, Basis sets (HGBS, AHGBS, def-TZVP (Ac-Lr), def2-XVPD (La-Lu)), CI-OPT, improved COSX, DLPNO-Multilevel,           
  DOCKER, DRACO, updates on ESD, GOAT, IRC, LR-CPCM, MBIS, meta-GGA TD-DFT gradient, ML-optimized integration grids, 
  MM, NACMEs, nearIR, NEB, NEB-TS, NL-DFT gradient (VV10), 2- and 3-layer-ONIOM, interface openCOSMO-RS, QMMM,   
  Crystal-QMMM, SF, symmetry and pop. for TD-DFT, r2SCAN hybrids, SOLVATOR                                   
                                                                         
[Other institutions]                                                     
  V. Asgeirsson          : NEB                                           
  Christoph Bannwarth    : sTDA-DFT, sTD-DFT, PBEh-3c, B97-3c, D3        
  Sebastian Ehlert       : rSCAN, r2SCAN, r2SCAN-3c, D4, dhf basis sets  
  Marvin Friede          : D4 for Fr, Ra, Ac-Lr                          
  Lars Goerigk           : TD-DFT with DH, B97 family of functionals     
  Stefan Grimme          : VdW corrections, initial TS optimization, DFT functionals, gCP, sTDA/sTD-DF 
  Waldemar Hujo          : DFT-NL                                        
  H. Jonsson             : NEB                                           
  Holger Kruse           : gCP                                           
  Marcel Mueller         : wB97X-3c, vDZP basis set                      
  Hagen Neugebauer       : wr2SCAN                                       
  Tobias Risthaus        : range-separated hybrid DFT                    
  Lukas Wittmann         : regularized MP2, r2SCAN double-hybrids, wr2SCAN        
                                                                         
We gratefully acknowledge several colleagues who have allowed us to      
interface, adapt or use parts of their codes:                            
  Ed Valeev, F. Pavosevic, A. Kumar             : LibInt (2-el integral package), F12 methods 
  Garnet Chan, S. Sharma, J. Yang, R. Olivares  : DMRG                   
  Ulf Ekstrom                                   : XCFun DFT Library      
  Mihaly Kallay                                 : mrcc  (arbitrary order and MRCC methods)
  Frank Weinhold                                : gennbo (NPA and NBO analysis)           
  Simon Mueller                                 : openCOSMO-RS                            
  Christopher J. Cramer and Donald G. Truhlar   : smd solvation model                     
  S Lehtola, MJT Oliveira, MAL Marques          : LibXC Library                           
  Liviu Ungur et al                             : ANISO software                          


 Your calculation uses the libint2 library for the computation of 2-el integrals
 For citations please refer to: http://libint.valeyev.net

 Your ORCA version has been built with support for libXC version: 6.2.2
 For citations please refer to: https://libxc.gitlab.io

 This ORCA versions uses:
   CBLAS   interface :  Fast vector & matrix operations
   LAPACKE interface :  Fast linear algebra routines
   SCALAPACK package :  Parallel linear algebra routines
   Shared memory     :  Shared parallel matrices
   BLAS/LAPACK       :  OpenBLAS 0.3.27  USE64BITINT DYNAMIC_ARCH NO_AFFINITY SkylakeX SINGLE_THREADED
        Core in use  :  SkylakeX
   Copyright (c) 2011-2014, The OpenBLAS Project


NOTE: MaxCore=5000 MB was set to SCF,MP2,MDCI,CIPSI,MRCI and CIS
      => If you want to overwrite this, your respective input block should be placed after the MaxCore statement
Your calculation utilizes the atom-pairwise dispersion correction
with the zero-damping scheme (D30)


XCFun DFT library Copyright 2009-2010 Ulf Ekstrom and contributors.
See http://admol.org/xcfun for more information.
This is free software; see the source code for copying conditions.
There is ABSOLUTELY NO WARRANTY; not even for MERCHANTABILITY or FITNESS FOR A PARTICULAR PURPOSE.
For details see the documentation.
Scientific users of this library should cite U. Ekstrom, L. Visscher, R. Bast, A. J. Thorvaldsen and K. Ruud;
J.Chem.Theor.Comp. 2010, DOI: 10.1021/ct100117s
XCFun Version 0.99 

Warning: RI is on but no J-basis has been assigned. Assigning Def2/J (nothing to worry about!)
================================================================================

----- Orbital basis set information -----
Your calculation utilizes the basis: def2-TZVPP
   F. Weigend and R. Ahlrichs, Phys. Chem. Chem. Phys. 7, 3297 (2005).

----- AuxJ basis set information -----
Your calculation utilizes the auxiliary basis: def2/J
   F. Weigend, Phys. Chem. Chem. Phys. 8, 1057 (2006).

================================================================================
                                        WARNINGS
                       Please study these warnings very carefully!
================================================================================


================================================================================
                                       INPUT FILE
================================================================================
NAME = honokiol2-opt_EC2.inp
|  1> ! wB97X-D3 def2-TZVPP TightSCF
|  2> 
|  3> %maxcore 5000
|  4> 
|  5> %pal
|  6> nprocs 25
|  7> end
|  8> 
|  9> * xyz 0 1
| 10> O           1.44883635984216      1.74312873788024      2.47757224321896
| 11>   O          -3.96640522927180     -1.53721222658900      2.19719277017467
| 12>   C           1.14714937442909      0.25834961349492      0.55877500428167
| 13>   C          -0.19835349778325     -0.21055863713656      0.97966949961584
| 14>   C          -2.56606475265288     -0.57222577420972      0.45660474842279
| 15>   C          -1.28909883828207     -0.13470959393041      0.10948727036696
| 16>   C           2.98221273083837      0.15150725631207     -1.06284558698211
| 17>   C           1.71212180148166     -0.21824214778400     -0.62770025457740
| 18>   C           1.89277244111409      1.17574066914369      1.32454057921478
| 19>   C          -0.41254304704403     -0.77587852383178      2.24081332776923
| 20>   C          -2.74265491189686     -1.12499545197744      1.73366651795229
| 21>   C          -3.72754439607839     -0.40683812252847     -0.50372628148847
| 22>   C           3.55466786370372     -0.40754355836251     -2.35193343504399
| 23>   C           3.70484344935494      1.04119881500172     -0.26958110560480
| 24>   C          -1.66693318704310     -1.23512039630295      2.60906503642381
| 25>   C           3.16768012230630      1.54975989519899      0.90328982620552
| 26>   C          -4.45601156757363     -1.68792745951542     -0.81795702885990
| 27>   C           2.81644539058261      0.04971514249360     -3.58008664802281
| 28>   C          -5.76889875587354     -1.86619834595058     -0.69338491311510
| 29>   C           2.25229436617255     -0.75007228525331     -4.47742350750479
| 30>   H          -1.14557763172235      0.30675071574140     -0.87016567308010
| 31>   H           1.13834701339282     -0.92490247108501     -1.21712719955577
| 32>   H           0.41302798722578     -0.87118893303402      2.93471379511944
| 33>   H          -4.43822391260162      0.33147808754592     -0.11878883328300
| 34>   H          -3.33327107690856      0.00861578354354     -1.43549953076658
| 35>   H           3.55760292018952     -1.50146875024710     -2.32239447362272
| 36>   H           4.60119227210665     -0.09413067779989     -2.42917986839463
| 37>   H           4.70114718682672      1.34457991282087     -0.57171487568402
| 38>   H          -1.83081269112381     -1.68282716360525      3.58080808249647
| 39>   H           3.72006845377086      2.25530745863548      1.51083190661114
| 40>   H          -3.84014429328463     -2.51222300573692     -1.17005585502377
| 41>   H           2.75051506346327      1.12706196003368     -3.71326803707727
| 42>   H           0.49071634705253      1.65093472842828      2.60193727298891
| 43>   H          -4.56819910126180     -1.68893916668365      1.45248732189911
| 44>   H          -6.23955579845972     -2.80823485494509     -0.94590648070186
| 45>   H          -6.41942508357253     -1.06613571587761     -0.35485852311778
| 46>   H           1.73557058676709     -0.35697510930613     -5.34429491334588
| 47>   H           2.29014944136749     -1.82992900245794     -4.37945103132431
| 48>   H          -4.96809483007172      3.04528453531579      4.64027264278358
| 49>   H          -4.28811331346778      1.01420640836077      5.76251674412010
| 50>   C          -4.63042932642632      2.25301830915576      3.97093840903542
| 51>   O          -2.59950105314691      1.31659624668563      4.61862555774242
| 52>   C          -2.36670451754740      2.21567139209379      3.64889664321046
| 53>   C          -4.01765593469504      1.06093955220916      4.71016008484851
| 54>   O          -3.51932988645208      2.75524057923114      3.20221378916041
| 55>   O          -1.28705240862520      2.51673920373507      3.22947008037139
| 56>   H          -5.42591903598128      1.98452055326479      3.28029769561609
| 57>   H          -4.22601971862241      0.10911830323265      4.22168836884351
| 58>   O          -5.57480376756347      2.70856188804826      0.61728554974665
| 59>   C          -4.63885636096829      3.44373603705377      0.51657345659487
| 60>   O          -3.46472223300616      3.11549558556201     -0.05996650988183
| 61>   O          -4.61713522134920      4.71915993495152      0.95960407040262
| 62>   C          -2.49366090254553      4.14989790739242      0.18553322503205
| 63>   C          -3.36050218413059      5.33358878678795      0.62841857196613
| 64>   H          -1.81446629790682      3.80665433883107      0.96533678095942
| 65>   H          -3.53038713357665      6.06101958235524     -0.16688932747649
| 66>   H          -1.94611174514467      4.33317966016175     -0.73643385782507
| 67>   H          -2.97739480352578      5.83737480384762      1.51327655056490
| 68> *
| 69> 
| 70>                          ****END OF INPUT****
================================================================================

                       ****************************
                       * Single Point Calculation *
                       ****************************

---------------------------------
CARTESIAN COORDINATES (ANGSTROEM)
---------------------------------
  O      1.448836    1.743129    2.477572
  O     -3.966405   -1.537212    2.197193
  C      1.147149    0.258350    0.558775
  C     -0.198353   -0.210559    0.979669
  C     -2.566065   -0.572226    0.456605
  C     -1.289099   -0.134710    0.109487
  C      2.982213    0.151507   -1.062846
  C      1.712122   -0.218242   -0.627700
  C      1.892772    1.175741    1.324541
  C     -0.412543   -0.775879    2.240813
  C     -2.742655   -1.124995    1.733667
  C     -3.727544   -0.406838   -0.503726
  C      3.554668   -0.407544   -2.351933
  C      3.704843    1.041199   -0.269581
  C     -1.666933   -1.235120    2.609065
  C      3.167680    1.549760    0.903290
  C     -4.456012   -1.687927   -0.817957
  C      2.816445    0.049715   -3.580087
  C     -5.768899   -1.866198   -0.693385
  C      2.252294   -0.750072   -4.477424
  H     -1.145578    0.306751   -0.870166
  H      1.138347   -0.924902   -1.217127
  H      0.413028   -0.871189    2.934714
  H     -4.438224    0.331478   -0.118789
  H     -3.333271    0.008616   -1.435500
  H      3.557603   -1.501469   -2.322394
  H      4.601192   -0.094131   -2.429180
  H      4.701147    1.344580   -0.571715
  H     -1.830813   -1.682827    3.580808
  H      3.720068    2.255307    1.510832
  H     -3.840144   -2.512223   -1.170056
  H      2.750515    1.127062   -3.713268
  H      0.490716    1.650935    2.601937
  H     -4.568199   -1.688939    1.452487
  H     -6.239556   -2.808235   -0.945906
  H     -6.419425   -1.066136   -0.354859
  H      1.735571   -0.356975   -5.344295
  H      2.290149   -1.829929   -4.379451
  H     -4.968095    3.045285    4.640273
  H     -4.288113    1.014206    5.762517
  C     -4.630429    2.253018    3.970938
  O     -2.599501    1.316596    4.618626
  C     -2.366705    2.215671    3.648897
  C     -4.017656    1.060940    4.710160
  O     -3.519330    2.755241    3.202214
  O     -1.287052    2.516739    3.229470
  H     -5.425919    1.984521    3.280298
  H     -4.226020    0.109118    4.221688
  O     -5.574804    2.708562    0.617286
  C     -4.638856    3.443736    0.516573
  O     -3.464722    3.115496   -0.059967
  O     -4.617135    4.719160    0.959604
  C     -2.493661    4.149898    0.185533
  C     -3.360502    5.333589    0.628419
  H     -1.814466    3.806654    0.965337
  H     -3.530387    6.061020   -0.166889
  H     -1.946112    4.333180   -0.736434
  H     -2.977395    5.837375    1.513277

----------------------------
CARTESIAN COORDINATES (A.U.)
----------------------------
  NO LB      ZA    FRAG     MASS         X           Y           Z
   0 O     8.0000    0    15.999    2.737904    3.294036    4.681933
   1 O     8.0000    0    15.999   -7.495420   -2.904910    4.152093
   2 C     6.0000    0    12.011    2.167798    0.488210    1.055932
   3 C     6.0000    0    12.011   -0.374834   -0.397898    1.851307
   4 C     6.0000    0    12.011   -4.849160   -1.081350    0.862858
   5 C     6.0000    0    12.011   -2.436044   -0.254564    0.206901
   6 C     6.0000    0    12.011    5.635565    0.286307   -2.008487
   7 C     6.0000    0    12.011    3.235441   -0.412418   -1.186182
   8 C     6.0000    0    12.011    3.576822    2.221828    2.503019
   9 C     6.0000    0    12.011   -0.779593   -1.466198    4.234524
  10 C     6.0000    0    12.011   -5.182867   -2.125933    3.276155
  11 C     6.0000    0    12.011   -7.044038   -0.768813   -0.951905
  12 C     6.0000    0    12.011    6.717349   -0.770146   -4.444510
  13 C     6.0000    0    12.011    7.001139    1.967581   -0.509434
  14 C     6.0000    0    12.011   -3.150047   -2.334039    4.930418
  15 C     6.0000    0    12.011    5.986048    2.928622    1.706970
  16 C     6.0000    0    12.011   -8.420642   -3.189721   -1.545715
  17 C     6.0000    0    12.011    5.322310    0.093948   -6.765383
  18 C     6.0000    0    12.011  -10.901639   -3.526604   -1.310308
  19 C     6.0000    0    12.011    4.256220   -1.417431   -8.461104
  20 H     1.0000    0     1.008   -2.164828    0.579675   -1.644375
  21 H     1.0000    0     1.008    2.151164   -1.747812   -2.300037
  22 H     1.0000    0     1.008    0.780510   -1.646308    5.545805
  23 H     1.0000    0     1.008   -8.387028    0.626403   -0.224478
  24 H     1.0000    0     1.008   -6.298969    0.016281   -2.712701
  25 H     1.0000    0     1.008    6.722895   -2.837365   -4.388690
  26 H     1.0000    0     1.008    8.694993   -0.177881   -4.590485
  27 H     1.0000    0     1.008    8.883881    2.540888   -1.080385
  28 H     1.0000    0     1.008   -3.459735   -3.180082    6.766747
  29 H     1.0000    0     1.008    7.029911    4.261913    2.855059
  30 H     1.0000    0     1.008   -7.256821   -4.747413   -2.211085
  31 H     1.0000    0     1.008    5.197720    2.129838   -7.017060
  32 H     1.0000    0     1.008    0.927320    3.119815    4.916949
  33 H     1.0000    0     1.008   -8.632645   -3.191632    2.744803
  34 H     1.0000    0     1.008  -11.791052   -5.306795   -1.787504
  35 H     1.0000    0     1.008  -12.130955   -2.014705   -0.670585
  36 H     1.0000    0     1.008    3.279753   -0.674585  -10.099254
  37 H     1.0000    0     1.008    4.327755   -3.458065   -8.275963
  38 H     1.0000    0     1.008   -9.388339    5.754754    8.768844
  39 H     1.0000    0     1.008   -8.103360    1.916572   10.889578
  40 C     6.0000    0    12.011   -8.750243    4.257588    7.503986
  41 O     8.0000    0    15.999   -4.912345    2.488006    8.727937
  42 C     6.0000    0    12.011   -4.472423    4.187012    6.895415
  43 C     6.0000    0    12.011   -7.592269    2.004885    8.900913
  44 O     8.0000    0    15.999   -6.650570    5.206650    6.051307
  45 O     8.0000    0    15.999   -2.432177    4.755948    6.102814
  46 H     1.0000    0     1.008  -10.253501    3.750200    6.198864
  47 H     1.0000    0     1.008   -7.986020    0.206204    7.977835
  48 O     8.0000    0    15.999  -10.534852    5.118440    1.166501
  49 C     6.0000    0    12.011   -8.766168    6.507718    0.976182
  50 O     8.0000    0    15.999   -6.547376    5.887433   -0.113320
  51 O     8.0000    0    15.999   -8.725121    8.917920    1.813389
  52 C     6.0000    0    12.011   -4.712336    7.842171    0.350607
  53 C     6.0000    0    12.011   -6.350429   10.079022    1.187539
  54 H     1.0000    0     1.008   -3.428844    7.193534    1.824222
  55 H     1.0000    0     1.008   -6.671465   11.453667   -0.315375
  56 H     1.0000    0     1.008   -3.677618    8.188523   -1.391658
  57 H     1.0000    0     1.008   -5.626461   11.031040    2.859678

--------------------------------
INTERNAL COORDINATES (ANGSTROEM)
--------------------------------
 O      0   0   0     0.000000000000     0.00000000     0.00000000
 O      1   0   0     6.337514572808     0.00000000     0.00000000
 C      1   2   0     2.444865421558    62.96685932     0.00000000
 C      3   1   2     1.485733860032    94.65093380     0.30441676
 C      2   1   3     2.433474669110    48.29334013   326.09478992
 C      5   2   1     1.393754963415   146.08325912    23.42950099
 C      3   1   2     2.451229518698   116.95550131   180.86250396
 C      7   3   1     1.392550555986    28.60447443   181.85381093
 C      1   2   3     1.359592028145    91.45979938   359.00037116
 C      4   3   1     1.398551927028   121.44817706   304.82959566
 C      2   1   3     1.371985457301    25.48173499   357.72492784
 C      5   2   1     1.516121276294    93.18009629   207.18530154
 C      7   3   1     1.517231087393   149.38376042   180.70698252
 C      7   3   1     1.393920644213    89.07168166     1.62211694
 C     10   4   3     1.385643187002   120.81478214   181.39687041
 C     14   7   3     1.386652456423   120.97164832   359.14958411
 C     12   5   2     1.506849452295   114.18604757   302.46401412
 C     13   7   3     1.504133722074   113.36249331    67.12080368
 C     17  12   5     1.330778527845   124.84140342   126.73614266
 C     18  13   7     1.327832725651   125.25456889   237.12476845
 H      6   5   2     1.084068923709   118.30688969   183.12398685
 H      8   7   3     1.084440152079   119.06151779   181.49935116
 H     10   4   3     1.082658517408   119.78540536     0.45423275
 H     12   5   2     1.094693126084   110.37643355    66.24989336
 H     12   5   2     1.093734330791   107.75163125   181.69366759
 H     13   7   3     1.094327871453   110.26790586   304.47035524
 H     13   7   3     1.095174863915   108.36217536   188.16577968
 H     14   7   3     1.084410458653   119.75573265   179.30122128
 H     15  10   4     1.082396595032   120.84674333   179.30953340
 H     16  14   7     1.082606859609   121.06613780   181.17223753
 H     17  12   5     1.087533553711   115.98510198   306.77783180
 H     18  13   7     1.087547817656   115.52433720    56.70926503
 H      1   2   3     0.970546420794    27.49723021   142.03283985
 H      2   1   3     0.969413809168   130.19870228   315.01385761
 H     19  17  12     1.082921039647   121.56590005   179.27246576
 H     19  17  12     1.085304027355   121.45192481     0.65849991
 H     20  18  13     1.083048885418   121.66754879   180.14865665
 H     20  18  13     1.084952599195   121.57725309   359.90659748
 H      2   1   3     5.288789832577    72.11645792   211.10817483
 H     39   2   1     2.418074656354    55.48252396   270.00446579
 C     39   2   1     1.090739236451    13.72245271    44.96726718
 O     40  39   2     2.061877306316    81.35201820    63.02344615
 C     42  40  39     1.342722797809   129.85594266   352.53238924
 C     40  39   2     1.087559524247    65.46519750    22.56935192
 O     43  42  40     1.348779344761   111.03151209   343.62592605
 O     43  42  40     1.196749407822   125.30834228   163.21607134
 H     41  39  45     1.087142823165   110.04206205   242.02988053
 H     44  40  39     1.089946683922   110.40104926   223.69293159
 O     24  12   5     2.735716845485   161.87229136    72.38427597
 C     49  24  12     1.194412618397   100.75319079   349.50198845
 O     50  49  24     1.348603380311   124.64331249    10.66938743
 O     50  49  24     1.350353306363   124.49246738   190.32120039
 C     51  50  49     1.439867490697   109.84135145   189.46552191
 C     52  50  49     1.437474604497   110.01044820   182.40897617
 H     53  51  50     1.089593981337   108.42758403   103.35462193
 H     54  52  50     1.091114619691   108.46878265   108.28679381
 H     53  51  50     1.087853658605   108.42030022   223.03915795
 H     54  52  50     1.087908662687   108.56568595   227.57181400

---------------------------
INTERNAL COORDINATES (A.U.)
---------------------------
 O      0   0   0     0.000000000000     0.00000000     0.00000000
 O      1   0   0    11.976166912341     0.00000000     0.00000000
 C      1   2   0     4.620126081039    62.96685932     0.00000000
 C      3   1   2     2.807630103354    94.65093380     0.30441676
 C      2   1   3     4.598600678452    48.29334013   326.09478992
 C      5   2   1     2.633815178647   146.08325912    23.42950099
 C      3   1   2     4.632152481722   116.95550131   180.86250396
 C      7   3   1     2.631539178454    28.60447443   181.85381093
 C      1   2   3     2.569256587057    91.45979938   359.00037116
 C      4   3   1     2.642880126152   121.44817706   304.82959566
 C      2   1   3     2.592676774022    25.48173499   357.72492784
 C      5   2   1     2.865053998007    93.18009629   207.18530154
 C      7   3   1     2.867151237045   149.38376042   180.70698252
 C      7   3   1     2.634128269981    89.07168166     1.62211694
 C     10   4   3     2.618486142767   120.81478214   181.39687041
 C     14   7   3     2.620393385568   120.97164832   359.14958411
 C     12   5   2     2.847532789887   114.18604757   302.46401412
 C     13   7   3     2.842400803515   113.36249331    67.12080368
 C     17  12   5     2.514806962530   124.84140342   126.73614266
 C     18  13   7     2.509240203139   125.25456889   237.12476845
 H      6   5   2     2.048593376105   118.30688969   183.12398685
 H      8   7   3     2.049294896057   119.06151779   181.49935116
 H     10   4   3     2.045928094459   119.78540536     0.45423275
 H     12   5   2     2.068670208985   110.37643355    66.24989336
 H     12   5   2     2.066858348462   107.75163125   181.69366759
 H     13   7   3     2.067979977763   110.26790586   304.47035524
 H     13   7   3     2.069580561554   108.36217536   188.16577968
 H     14   7   3     2.049238783615   119.75573265   179.30122128
 H     15  10   4     2.045433132899   120.84674333   179.30953340
 H     16  14   7     2.045830475366   121.06613780   181.17223753
 H     17  12   5     2.055140577963   115.98510198   306.77783180
 H     18  13   7     2.055167532914   115.52433720    56.70926503
 H      1   2   3     1.834066935559    27.49723021   142.03283985
 H      2   1   3     1.831926609770   130.19870228   315.01385761
 H     19  17  12     2.046424189595   121.56590005   179.27246576
 H     19  17  12     2.050927383743   121.45192481     0.65849991
 H     20  18  13     2.046665783089   121.66754879   180.14865665
 H     20  18  13     2.050263280764   121.57725309   359.90659748
 H      2   1   3     9.994364363437    72.11645792   211.10817483
 H     39   2   1     4.569498871885    55.48252396   270.00446579
 C     39   2   1     2.061198440414    13.72245271    44.96726718
 O     40  39   2     3.896383430684    81.35201820    63.02344615
 C     42  40  39     2.537378361632   129.85594266   352.53238924
 C     40  39   2     2.055189655164    65.46519750    22.56935192
 O     43  42  40     2.548823576687   111.03151209   343.62592605
 O     43  42  40     2.261528631715   125.30834228   163.21607134
 H     41  39  45     2.054402204239   110.04206205   242.02988053
 H     44  40  39     2.059700733188   110.40104926   223.69293159
 O     24  12   5     5.169755617921   161.87229136    72.38427597
 C     49  24  12     2.257112739670   100.75319079   349.50198845
 O     50  49  24     2.548491052068   124.64331249    10.66938743
 O     50  49  24     2.551797933061   124.49246738   190.32120039
 C     51  50  49     2.720955226554   109.84135145   189.46552191
 C     52  50  49     2.716433326966   110.01044820   182.40897617
 H     53  51  50     2.059034221896   108.42758403   103.35462193
 H     54  52  50     2.061907811934   108.46878265   108.28679381
 H     53  51  50     2.055745488548   108.42030022   223.03915795
 H     54  52  50     2.055849431198   108.56568595   227.57181400

---------------------
BASIS SET INFORMATION
---------------------
There are 3 groups of distinct atoms

 Group   1 Type O   : 11s6p2d1f contracted to 5s3p2d1f pattern {62111/411/11/1}
 Group   2 Type C   : 11s6p2d1f contracted to 5s3p2d1f pattern {62111/411/11/1}
 Group   3 Type H   : 5s2p1d contracted to 3s2p1d pattern {311/11/1}

Atom   0O    basis set group =>   1
Atom   1O    basis set group =>   1
Atom   2C    basis set group =>   2
Atom   3C    basis set group =>   2
Atom   4C    basis set group =>   2
Atom   5C    basis set group =>   2
Atom   6C    basis set group =>   2
Atom   7C    basis set group =>   2
Atom   8C    basis set group =>   2
Atom   9C    basis set group =>   2
Atom  10C    basis set group =>   2
Atom  11C    basis set group =>   2
Atom  12C    basis set group =>   2
Atom  13C    basis set group =>   2
Atom  14C    basis set group =>   2
Atom  15C    basis set group =>   2
Atom  16C    basis set group =>   2
Atom  17C    basis set group =>   2
Atom  18C    basis set group =>   2
Atom  19C    basis set group =>   2
Atom  20H    basis set group =>   3
Atom  21H    basis set group =>   3
Atom  22H    basis set group =>   3
Atom  23H    basis set group =>   3
Atom  24H    basis set group =>   3
Atom  25H    basis set group =>   3
Atom  26H    basis set group =>   3
Atom  27H    basis set group =>   3
Atom  28H    basis set group =>   3
Atom  29H    basis set group =>   3
Atom  30H    basis set group =>   3
Atom  31H    basis set group =>   3
Atom  32H    basis set group =>   3
Atom  33H    basis set group =>   3
Atom  34H    basis set group =>   3
Atom  35H    basis set group =>   3
Atom  36H    basis set group =>   3
Atom  37H    basis set group =>   3
Atom  38H    basis set group =>   3
Atom  39H    basis set group =>   3
Atom  40C    basis set group =>   2
Atom  41O    basis set group =>   1
Atom  42C    basis set group =>   2
Atom  43C    basis set group =>   2
Atom  44O    basis set group =>   1
Atom  45O    basis set group =>   1
Atom  46H    basis set group =>   3
Atom  47H    basis set group =>   3
Atom  48O    basis set group =>   1
Atom  49C    basis set group =>   2
Atom  50O    basis set group =>   1
Atom  51O    basis set group =>   1
Atom  52C    basis set group =>   2
Atom  53C    basis set group =>   2
Atom  54H    basis set group =>   3
Atom  55H    basis set group =>   3
Atom  56H    basis set group =>   3
Atom  57H    basis set group =>   3
---------------------------------
AUXILIARY/J BASIS SET INFORMATION
---------------------------------
There are 3 groups of distinct atoms

 Group   1 Type O   : 12s5p4d2f1g contracted to 6s4p3d1f1g pattern {711111/2111/211/2/1}
 Group   2 Type C   : 12s5p4d2f1g contracted to 6s4p3d1f1g pattern {711111/2111/211/2/1}
 Group   3 Type H   : 5s2p1d contracted to 3s1p1d pattern {311/2/1}

Atom   0O    basis set group =>   1
Atom   1O    basis set group =>   1
Atom   2C    basis set group =>   2
Atom   3C    basis set group =>   2
Atom   4C    basis set group =>   2
Atom   5C    basis set group =>   2
Atom   6C    basis set group =>   2
Atom   7C    basis set group =>   2
Atom   8C    basis set group =>   2
Atom   9C    basis set group =>   2
Atom  10C    basis set group =>   2
Atom  11C    basis set group =>   2
Atom  12C    basis set group =>   2
Atom  13C    basis set group =>   2
Atom  14C    basis set group =>   2
Atom  15C    basis set group =>   2
Atom  16C    basis set group =>   2
Atom  17C    basis set group =>   2
Atom  18C    basis set group =>   2
Atom  19C    basis set group =>   2
Atom  20H    basis set group =>   3
Atom  21H    basis set group =>   3
Atom  22H    basis set group =>   3
Atom  23H    basis set group =>   3
Atom  24H    basis set group =>   3
Atom  25H    basis set group =>   3
Atom  26H    basis set group =>   3
Atom  27H    basis set group =>   3
Atom  28H    basis set group =>   3
Atom  29H    basis set group =>   3
Atom  30H    basis set group =>   3
Atom  31H    basis set group =>   3
Atom  32H    basis set group =>   3
Atom  33H    basis set group =>   3
Atom  34H    basis set group =>   3
Atom  35H    basis set group =>   3
Atom  36H    basis set group =>   3
Atom  37H    basis set group =>   3
Atom  38H    basis set group =>   3
Atom  39H    basis set group =>   3
Atom  40C    basis set group =>   2
Atom  41O    basis set group =>   1
Atom  42C    basis set group =>   2
Atom  43C    basis set group =>   2
Atom  44O    basis set group =>   1
Atom  45O    basis set group =>   1
Atom  46H    basis set group =>   3
Atom  47H    basis set group =>   3
Atom  48O    basis set group =>   1
Atom  49C    basis set group =>   2
Atom  50O    basis set group =>   1
Atom  51O    basis set group =>   1
Atom  52C    basis set group =>   2
Atom  53C    basis set group =>   2
Atom  54H    basis set group =>   3
Atom  55H    basis set group =>   3
Atom  56H    basis set group =>   3
Atom  57H    basis set group =>   3
--------------------------------------------------------------------------
WARNING: There was an error initializing an OpenFabrics device.

  Local host:   ga01
  Local device: mlx5_0
--------------------------------------------------------------------------


           ************************************************************
           *        Program running with 25 parallel MPI-processes    *
           *              working on a common directory               *
           ************************************************************
------------------------------------------------------------------------------
                             ORCA STARTUP CALCULATIONS
                           -- RI-GTO INTEGRALS CHOSEN --
------------------------------------------------------------------------------
------------------------------------------------------------------------------
                   ___                                                        
                  /   \      - P O W E R E D   B Y -                         
                 /     \                                                     
                 |  |  |   _    _      __       _____    __    __             
                 |  |  |  | |  | |    /  \     |  _  \  |  |  /  |          
                  \  \/   | |  | |   /    \    | | | |  |  | /  /          
                 / \  \   | |__| |  /  /\  \   | |_| |  |  |/  /          
                |  |  |   |  __  | /  /__\  \  |    /   |      \           
                |  |  |   | |  | | |   __   |  |    \   |  |\   \          
                \     /   | |  | | |  |  |  |  | |\  \  |  | \   \       
                 \___/    |_|  |_| |__|  |__|  |_| \__\ |__|  \__/        
                                                                              
                      - O R C A' S   B I G   F R I E N D -                    
                                      &                                       
                       - I N T E G R A L  F E E D E R -                       
                                                                              
 v1 FN, 2020, v2 2021, v3 2022-2024                                           
------------------------------------------------------------------------------


----------------------
SHARK INTEGRAL PACKAGE
----------------------

Number of atoms                             ...     58
Number of basis functions                   ...   1356
Number of shells                            ...    508
Maximum angular momentum                    ...      3
Integral batch strategy                     ... SHARK/LIBINT Hybrid
RI-J (if used) integral strategy            ... SPLIT-RIJ (Revised 2003 algorithm where possible)
Printlevel                                  ...      1
Contraction scheme used                     ... SEGMENTED contraction
Prescreening option                         ... SCHWARTZ
   Thresh                                   ... 2.500e-11
   Tcut                                     ... 2.500e-12
   Tpresel                                  ... 2.500e-12 
Coulomb Range Separation                    ... NOT USED
Exchange Range Separation                   ... Long Range
   Mu parameter                             ... 2.500e-01
   Scaling (regular/separated)              ... 1.957e-01 8.043e-01
Multipole approximations                    ... NOT USED
Finite Nucleus Model                        ... NOT USED
CABS basis                                  ... NOT available
Auxiliary Coulomb fitting basis             ... AVAILABLE
   # of basis functions in Aux-J            ...   1854
   # of shells in Aux-J                     ...    610
   Maximum angular momentum in Aux-J        ...      4
Auxiliary J/K fitting basis                 ... NOT available
Auxiliary Correlation fitting basis         ... NOT available
Auxiliary 'external' fitting basis          ... NOT available

Checking pre-screening integrals            ... done (  0.0 sec) Dimension = 508
Check shell pair data                       ... done (  0.0 sec)
Shell pair information
Shell pair cut-off parameter TPreSel        ...   2.5e-12
Total number of shell pairs                 ...    129286
Shell pairs after pre-screening             ...     73256
Total number of primitive shell pairs       ...    360758
Primitive shell pairs kept                  ...    133878
          la=0 lb=0:  16532 shell pairs
          la=1 lb=0:  21445 shell pairs
          la=1 lb=1:   7068 shell pairs
          la=2 lb=0:  11060 shell pairs
          la=2 lb=1:   7342 shell pairs
          la=2 lb=2:   1822 shell pairs
          la=3 lb=0:   3891 shell pairs
          la=3 lb=1:   2609 shell pairs
          la=3 lb=2:   1245 shell pairs
          la=3 lb=3:    242 shell pairs

Calculating one electron integrals          ... done (  0.2 sec)
Calculating RI/J V-Matrix + Cholesky decomp.... done (  0.2 sec)
Calculating Nuclear repulsion               ... done (  0.0 sec) ENN=   3311.974613472014 Eh

Diagonalization of the overlap matrix:
Smallest eigenvalue                        ... 5.407e-06
Time for diagonalization                   ...    0.313 sec
Threshold for overlap eigenvalues          ... 1.000e-07
Number of eigenvalues below threshold      ... 0
Time for construction of square roots      ...    0.148 sec
Total time needed                          ...    0.479 sec

-------------------
DFT GRID GENERATION
-------------------

General Integration Accuracy     IntAcc      ... 4.388
Radial Grid Type                 RadialGrid  ... OptM3 with GC (2021)
Angular Grid (max. ang.)         AngularGrid ... 4 (Lebedev-302)
Angular grid pruning method      GridPruning ... 4 (adaptive)
Weight generation scheme         WeightScheme... mBecke (2022)
Basis function cutoff            BFCut       ... 1.0000e-11
Integration weight cutoff        WCut        ... 1.0000e-14
Partially contracted basis set               ... off
Rotationally invariant grid construction     ... off
Angular grids for H and He will be reduced by one unit

Total number of grid points                  ...   273953
Total number of batches                      ...     4311
Average number of points per batch           ...       63
Average number of grid points per atom       ...     4723

--------------------
COSX GRID GENERATION
--------------------

GRIDX 1
-------
General Integration Accuracy     IntAcc      ... 3.816
Radial Grid Type                 RadialGrid  ... OptM3 with GC (2021)
Angular Grid (max. ang.)         AngularGrid ... 1 (Lebedev-50)
Angular grid pruning method      GridPruning ... 4 (adaptive)
Weight generation scheme         WeightScheme... mBecke (2022)
Basis function cutoff            BFCut       ... 1.0000e-11
Integration weight cutoff        WCut        ... 1.0000e-14
Partially contracted basis set               ... on
Rotationally invariant grid construction     ... off
Angular grids for H and He will be reduced by one unit

Total number of grid points                  ...    34688
Total number of batches                      ...      309
Average number of points per batch           ...      112
Average number of grid points per atom       ...      598
UseSFitting                                  ... on

GRIDX 2
-------
General Integration Accuracy     IntAcc      ... 4.020
Radial Grid Type                 RadialGrid  ... OptM3 with GC (2021)
Angular Grid (max. ang.)         AngularGrid ... 2 (Lebedev-110)
Angular grid pruning method      GridPruning ... 4 (adaptive)
Weight generation scheme         WeightScheme... mBecke (2022)
Basis function cutoff            BFCut       ... 1.0000e-11
Integration weight cutoff        WCut        ... 1.0000e-14
Partially contracted basis set               ... on
Rotationally invariant grid construction     ... off
Angular grids for H and He will be reduced by one unit

Total number of grid points                  ...    74843
Total number of batches                      ...      617
Average number of points per batch           ...      121
Average number of grid points per atom       ...     1290
UseSFitting                                  ... on

GRIDX 3
-------
General Integration Accuracy     IntAcc      ... 4.338
Radial Grid Type                 RadialGrid  ... OptM3 with GC (2021)
Angular Grid (max. ang.)         AngularGrid ... 3 (Lebedev-194)
Angular grid pruning method      GridPruning ... 4 (adaptive)
Weight generation scheme         WeightScheme... mBecke (2022)
Basis function cutoff            BFCut       ... 1.0000e-11
Integration weight cutoff        WCut        ... 1.0000e-14
Partially contracted basis set               ... on
Rotationally invariant grid construction     ... off
Angular grids for H and He will be reduced by one unit

[ga01:889302] 24 more processes have sent help message help-mpi-btl-openib.txt / error in device init
[ga01:889302] Set MCA parameter "orte_base_help_aggregate" to 0 to see all help / error messages
Total number of grid points                  ...   163233
Total number of batches                      ...     1303
Average number of points per batch           ...      125
Average number of grid points per atom       ...     2814
UseSFitting                                  ... on
Initializing property integral containers    ... done (  0.0 sec)

SHARK setup successfully completed in   5.1 seconds

Maximum memory used throughout the entire STARTUP-calculation: 154.4 MB
--------------------------------------------------------------------------
WARNING: There was an error initializing an OpenFabrics device.

  Local host:   ga01
  Local device: mlx5_0
--------------------------------------------------------------------------


           ************************************************************
           *        Program running with 25 parallel MPI-processes    *
           *              working on a common directory               *
           ************************************************************
-------------------------------------------------------------------------------
                                 ORCA GUESS
                   Start orbitals & Density for SCF / CASSCF
-------------------------------------------------------------------------------

------------
SCF SETTINGS
------------
Hamiltonian:
 Density Functional     Method          .... DFT(GTOs)
 Exchange Functional    Exchange        .... WB97X-D3
 Correlation Functional Correlation     .... WB97X-D3
 Gradients option       PostSCFGGA      .... off
 Hybrid DFT is turned on
   Fraction HF Exchange ScalHFX         ....  0.195728
   Scaling of DF-GGA-X  ScalDFX         ....  0.000000
   Scaling of DF-GGA-C  ScalDFC         ....  1.000000
   Scaling of DF-LDA-C  ScalLDAC        ....  1.000000
   Perturbative correction              ....  0.000000
 Long-range corrected/Screened/Range-Separated Hybrid DFT is turned on
   Amount of maximum screened exact exchange              ....  0.804272
   Range separation parameter mu (erf(mu*r12)/r12)        ....  0.250000
 RI-approximation to the Coulomb term is turned on
   Number of AuxJ basis functions       .... 1854
   RIJ-COSX (HFX calculated with COS-X)).... on


General Settings:
 Integral files         IntName         .... honokiol2-opt_EC2
 Hartree-Fock type      HFTyp           .... RHF
 Total Charge           Charge          ....    0
 Multiplicity           Mult            ....    1
 Number of Electrons    NEL             ....  234
 Basis Dimension        Dim             .... 1356
 Nuclear Repulsion      ENuc            ....   3311.9746134720 Eh

Convergence Acceleration:
 AO-DIIS                CNVDIIS         .... on
   Start iteration      DIISMaxIt       ....    12
   Startup error        DIISStart       ....  0.200000
   # of expansion vecs  DIISMaxEq       ....     5
   Bias factor          DIISBfac        ....   1.050
   Max. coefficient     DIISMaxC        ....  10.000
 MO-DIIS                CNVKDIIS        .... off
 Trust-Rad. Augm. Hess. CNVTRAH         .... auto
   Auto Start mean grad. ratio tolernc. ....  1.125000
   Auto Start start iteration           ....    50
   Auto Start num. interpolation iter.  ....    10
   Max. Number of Micro iterations      ....    24
   Max. Number of Macro iterations      .... Maxiter - #DIIS iter
   Number of Davidson start vectors     ....     2
   Converg. threshold    (grad. norm)   ....   1.000e-05
   Grad. Scal. Fac. for Micro threshold ....   0.100
   Minimum threshold for Micro iter.    ....   1.000e-02
   NR start threshold (gradient norm)   ....   1.000e-04
   Initial trust radius                 ....   0.400
   Minimum AH scaling param. (alpha)    ....   1.000
   Maximum AH scaling param. (alpha)    .... 1000.000
   Quad. conv. algorithm                .... NR
   White noise on init. David. guess    .... on
   Maximum white noise                  ....   0.010
   Pseudo random numbers                .... off
   Inactive MOs                         .... canonical
   Orbital update algorithm             .... Taylor
   Preconditioner                       .... Diag
   Full preconditioner red. dimension   ....   250
 SOSCF                  CNVSOSCF        .... on
   Start iteration      SOSCFMaxIt      ....   150
   Startup grad/error   SOSCFStart      ....  0.003300
   Hessian update       SOSCFHessUp     .... L-BFGS
 Level Shifting         CNVShift        .... on
   Level shift para.    LevelShift      ....    0.2500
   Turn off err/grad.   ShiftErr        ....    0.0010
 Zerner damping         CNVZerner       .... off
 Static damping         CNVDamp         .... on
   Fraction old density DampFac         ....    0.7000
   Max. Damping (<1)    DampMax         ....    0.9800
   Min. Damping (>=0)   DampMin         ....    0.0000
   Turn off err/grad.   DampErr         ....    0.1000

SCF Procedure:
 Maximum # iterations   MaxIter         ....   125
 SCF integral mode      SCFMode         .... Direct
   Integral package                     .... SHARK and LIBINT hybrid scheme
 Reset frequency        DirectResetFreq ....    20
 Integral Threshold     Thresh          ....  2.500e-11 Eh
 Primitive CutOff       TCut            ....  2.500e-12 Eh

Convergence Tolerance:
 Convergence Check Mode ConvCheckMode   .... Total+1el-Energy
 Convergence forced     ConvForced      .... 0
 Energy Change          TolE            ....  1.000e-08 Eh
 1-El. energy change                    ....  1.000e-05 Eh
 Orbital Gradient       TolG            ....  1.000e-05
 Orbital Rotation angle TolX            ....  1.000e-05
 DIIS Error             TolErr          ....  5.000e-07

------------------------------
INITIAL GUESS: MODEL POTENTIAL
------------------------------
Loading Hartree-Fock densities                     ... done
Calculating cut-offs                               ... done
Initializing the effective Hamiltonian             ... done
Setting up the integral package (SHARK)            ... done
Starting the Coulomb interaction                   ... done (   0.4 sec)
Making the grid                                    ... done (   0.4 sec)
Mapping shells                                     ... done
Starting the XC term evaluation                    ... done (   0.2 sec)
  promolecular density results
     # of electrons  =    233.994815368
     EX              =   -195.713149179
     EC              =     -7.855834314
     EX+EC           =   -203.568983492
Transforming the Hamiltonian                       ... done (   0.1 sec)
Diagonalizing the Hamiltonian                      ... done (   0.3 sec)
Back transforming the eigenvectors                 ... done (   0.1 sec)
Now organizing SCF variables                       ... done
                      ------------------
                      INITIAL GUESS DONE (   1.8 sec)
                      ------------------
             **** ENERGY FILE WAS UPDATED (honokiol2-opt_EC2.en.tmp) ****
Finished Guess after   3.0 sec
Maximum memory used throughout the entire GUESS-calculation: 138.9 MB
[ga01:889410] 24 more processes have sent help message help-mpi-btl-openib.txt / error in device init
[ga01:889410] Set MCA parameter "orte_base_help_aggregate" to 0 to see all help / error messages
--------------------------------------------------------------------------
WARNING: There was an error initializing an OpenFabrics device.

  Local host:   ga01
  Local device: mlx5_0
--------------------------------------------------------------------------


           ************************************************************
           *        Program running with 25 parallel MPI-processes    *
           *              working on a common directory               *
           ************************************************************

-------------------------------------------------------------------------------------------
                                      ORCA LEAN-SCF
                              memory conserving SCF solver
-------------------------------------------------------------------------------------------

----------------------------------------D-I-I-S--------------------------------------------
Iteration    Energy (Eh)           Delta-E    RMSDP     MaxDP     DIISErr   Damp  Time(sec)
-------------------------------------------------------------------------------------------
               ***  Starting incremental Fock matrix formation  ***
[ga01:889515] 24 more processes have sent help message help-mpi-btl-openib.txt / error in device init
[ga01:889515] Set MCA parameter "orte_base_help_aggregate" to 0 to see all help / error messages
    1    -1531.3866851054672225     0.00e+00  5.63e-04  5.72e-02  2.82e-01  0.700  14.5
    2    -1531.7020547087749947    -3.15e-01  4.79e-04  7.27e-02  1.33e-01  0.700   7.9
                               ***Turning on AO-DIIS***
    3    -1531.8572144821291658    -1.55e-01  2.67e-04  3.85e-02  5.41e-02  0.700   7.2
    4    -1531.9507418639723255    -9.35e-02  6.07e-04  8.44e-02  3.74e-02  0.000   6.9
    5    -1532.1541403171158890    -2.03e-01  7.98e-05  7.13e-03  8.04e-03  0.000   7.3
    6    -1532.1546991473505841    -5.59e-04  3.17e-05  2.77e-03  3.83e-03  0.000   6.4
                              *** Initializing SOSCF ***
---------------------------------------S-O-S-C-F--------------------------------------
Iteration    Energy (Eh)           Delta-E    RMSDP     MaxDP     MaxGrad    Time(sec)
--------------------------------------------------------------------------------------
    7    -1532.1547934309064658    -9.43e-05  1.90e-05  2.03e-03  6.25e-04     6.5
               *** Restarting incremental Fock matrix formation ***
    8    -1532.1547806746348215     1.28e-05  7.44e-05  6.62e-03  2.53e-04    14.2
    9    -1532.1547860876198683    -5.41e-06  3.96e-05  3.46e-03  1.88e-04    10.1
   10    -1532.1547876248669127    -1.54e-06  3.20e-05  2.89e-03  8.79e-05     9.6
   11    -1532.1547880514663120    -4.27e-07  6.88e-06  5.98e-04  2.15e-05     9.3
   12    -1532.1547880817397527    -3.03e-08  3.65e-06  3.36e-04  1.24e-05     7.9
   13    -1532.1547880848956993    -3.16e-09  1.53e-06  2.26e-04  3.24e-06     7.3
                 **** Energy Check signals convergence ****

               *****************************************************
               *                     SUCCESS                       *
               *           SCF CONVERGED AFTER  13 CYCLES          *
               *****************************************************

Recomputing exchange energy using gridx3       ... done (   23.970 sec)
Old exchange energy                            :    -64.218193495 Eh
New exchange energy                            :    -64.218165192 Eh
Exchange energy change after final integration :      0.000028303 Eh
Total energy after final integration           :  -1532.154759782 Eh
             **** ENERGY FILE WAS UPDATED (honokiol2-opt_EC2.en.tmp) ****

----------------
TOTAL SCF ENERGY
----------------

Total Energy       :      -1532.15475978158292 Eh          -41692.05060 eV

Components:
Nuclear Repulsion  :       3311.97461347201352 Eh           90123.41102 eV
Electronic Energy  :      -4844.12940155690922 Eh         -131815.46238 eV
One Electron Energy:      -8678.51897752290824 Eh         -236154.50724 eV
Two Electron Energy:       3834.38957596599903 Eh          104339.04486 eV

Virial components:
Potential Energy   :      -3057.34778304217434 Eh          -83194.66271 eV
Kinetic Energy     :       1525.19302326059164 Eh           41502.61211 eV
Virial Ratio       :          2.00456449538833

DFT components:
N(Alpha)           :      117.000003677498 electrons
N(Beta)            :      117.000003677498 electrons
N(Total)           :      234.000007354996 electrons
E(XC)              :     -144.367043927836 Eh       

---------------
SCF CONVERGENCE
---------------

  Last Energy change         ...    3.1559e-09  Tolerance :   1.0000e-08
  Last MAX-Density change    ...    2.2609e-04  Tolerance :   1.0000e-07
  Last RMS-Density change    ...    1.5295e-06  Tolerance :   5.0000e-09
  Last DIIS Error            ...    6.2457e-04  Tolerance :   5.0000e-07
  Last Orbital Gradient      ...    3.2415e-06  Tolerance :   1.0000e-05
  Last Orbital Rotation      ...    1.2303e-05  Tolerance :   1.0000e-05


----------------
ORBITAL ENERGIES
----------------

  NO   OCC          E(Eh)            E(eV) 
   0   2.0000     -19.305619      -525.3326 
   1   2.0000     -19.304089      -525.2910 
   2   2.0000     -19.296250      -525.0776 
   3   2.0000     -19.295148      -525.0477 
   4   2.0000     -19.257129      -524.0131 
   5   2.0000     -19.235134      -523.4146 
   6   2.0000     -19.234593      -523.3999 
   7   2.0000     -19.223139      -523.0882 
   8   2.0000     -10.469061      -284.8776 
   9   2.0000     -10.458424      -284.5882 
  10   2.0000     -10.364959      -282.0449 
  11   2.0000     -10.364513      -282.0327 
  12   2.0000     -10.361973      -281.9636 
  13   2.0000     -10.356975      -281.8276 
  14   2.0000     -10.338728      -281.3311 
  15   2.0000     -10.328661      -281.0572 
  16   2.0000     -10.295830      -280.1638 
  17   2.0000     -10.288921      -279.9758 
  18   2.0000     -10.286929      -279.9216 
  19   2.0000     -10.283503      -279.8283 
  20   2.0000     -10.281748      -279.7806 
  21   2.0000     -10.279299      -279.7140 
  22   2.0000     -10.278928      -279.7038 
  23   2.0000     -10.278163      -279.6830 
  24   2.0000     -10.277970      -279.6778 
  25   2.0000     -10.276676      -279.6426 
  26   2.0000     -10.273552      -279.5576 
  27   2.0000     -10.273285      -279.5503 
  28   2.0000     -10.269820      -279.4560 
  29   2.0000     -10.269514      -279.4477 
  30   2.0000     -10.263868      -279.2941 
  31   2.0000     -10.262154      -279.2474 
  32   2.0000      -1.293875       -35.2081 
  33   2.0000      -1.283769       -34.9331 
  34   2.0000      -1.177661       -32.0458 
  35   2.0000      -1.172462       -31.9043 
  36   2.0000      -1.171831       -31.8871 
  37   2.0000      -1.168817       -31.8051 
  38   2.0000      -1.161700       -31.6115 
  39   2.0000      -1.153440       -31.3867 
  40   2.0000      -0.983368       -26.7588 
  41   2.0000      -0.964850       -26.2549 
  42   2.0000      -0.930046       -25.3079 
  43   2.0000      -0.911802       -24.8114 
  44   2.0000      -0.910493       -24.7758 
  45   2.0000      -0.903701       -24.5910 
  46   2.0000      -0.885056       -24.0836 
  47   2.0000      -0.872150       -23.7324 
  48   2.0000      -0.852228       -23.1903 
  49   2.0000      -0.830104       -22.5883 
  50   2.0000      -0.803603       -21.8671 
  51   2.0000      -0.799634       -21.7591 
  52   2.0000      -0.796351       -21.6698 
  53   2.0000      -0.783434       -21.3183 
  54   2.0000      -0.736709       -20.0469 
  55   2.0000      -0.729197       -19.8424 
  56   2.0000      -0.721810       -19.6414 
  57   2.0000      -0.720555       -19.6073 
  58   2.0000      -0.697024       -18.9670 
  59   2.0000      -0.688554       -18.7365 
  60   2.0000      -0.675108       -18.3706 
  61   2.0000      -0.662848       -18.0370 
  62   2.0000      -0.657972       -17.9043 
  63   2.0000      -0.655048       -17.8248 
  64   2.0000      -0.645890       -17.5756 
  65   2.0000      -0.639560       -17.4033 
  66   2.0000      -0.631637       -17.1877 
  67   2.0000      -0.629205       -17.1216 
  68   2.0000      -0.619290       -16.8517 
  69   2.0000      -0.613015       -16.6810 
  70   2.0000      -0.593487       -16.1496 
  71   2.0000      -0.587498       -15.9866 
  72   2.0000      -0.579067       -15.7572 
  73   2.0000      -0.571019       -15.5382 
  74   2.0000      -0.562297       -15.3009 
  75   2.0000      -0.559225       -15.2173 
  76   2.0000      -0.555940       -15.1279 
  77   2.0000      -0.553634       -15.0651 
  78   2.0000      -0.551077       -14.9956 
  79   2.0000      -0.548578       -14.9276 
  80   2.0000      -0.543927       -14.8010 
  81   2.0000      -0.542183       -14.7535 
  82   2.0000      -0.534700       -14.5499 
  83   2.0000      -0.529386       -14.4053 
  84   2.0000      -0.523750       -14.2520 
  85   2.0000      -0.517467       -14.0810 
  86   2.0000      -0.510993       -13.9048 
  87   2.0000      -0.507552       -13.8112 
  88   2.0000      -0.500009       -13.6059 
  89   2.0000      -0.493926       -13.4404 
  90   2.0000      -0.492500       -13.4016 
  91   2.0000      -0.488296       -13.2872 
  92   2.0000      -0.486709       -13.2440 
  93   2.0000      -0.485002       -13.1976 
  94   2.0000      -0.481312       -13.0972 
  95   2.0000      -0.480644       -13.0790 
  96   2.0000      -0.461321       -12.5532 
  97   2.0000      -0.454817       -12.3762 
  98   2.0000      -0.450940       -12.2707 
  99   2.0000      -0.445288       -12.1169 
 100   2.0000      -0.443024       -12.0553 
 101   2.0000      -0.435502       -11.8506 
 102   2.0000      -0.426246       -11.5987 
 103   2.0000      -0.424950       -11.5635 
 104   2.0000      -0.420533       -11.4433 
 105   2.0000      -0.418750       -11.3948 
 106   2.0000      -0.415405       -11.3037 
 107   2.0000      -0.413841       -11.2612 
 108   2.0000      -0.408427       -11.1139 
 109   2.0000      -0.406095       -11.0504 
 110   2.0000      -0.402930       -10.9643 
 111   2.0000      -0.367418        -9.9979 
 112   2.0000      -0.351522        -9.5654 
 113   2.0000      -0.339642        -9.2421 
 114   2.0000      -0.334636        -9.1059 
 115   2.0000      -0.304838        -8.2951 
 116   2.0000      -0.283239        -7.7073 
 117   0.0000       0.053011         1.4425 
 118   0.0000       0.055445         1.5087 
 119   0.0000       0.078198         2.1279 
 120   0.0000       0.082391         2.2420 
 121   0.0000       0.087300         2.3756 
 122   0.0000       0.091418         2.4876 
 123   0.0000       0.101490         2.7617 
 124   0.0000       0.110424         3.0048 
 125   0.0000       0.114199         3.1075 
 126   0.0000       0.117210         3.1895 
 127   0.0000       0.123137         3.3507 
*Only the first 10 virtual orbitals were printed.

                    ********************************
                    * MULLIKEN POPULATION ANALYSIS *
                    ********************************

-----------------------
MULLIKEN ATOMIC CHARGES
-----------------------
   0 O :   -0.335860
   1 O :   -0.354718
   2 C :    0.073478
   3 C :    0.037487
   4 C :   -0.026111
   5 C :   -0.159007
   6 C :   -0.028967
   7 C :   -0.173956
   8 C :    0.171445
   9 C :   -0.169690
  10 C :    0.201288
  11 C :   -0.095303
  12 C :   -0.093474
  13 C :   -0.084882
  14 C :   -0.194145
  15 C :   -0.181973
  16 C :   -0.163894
  17 C :   -0.127619
  18 C :   -0.244833
  19 C :   -0.224449
  20 H :    0.106245
  21 H :    0.112942
  22 H :    0.135340
  23 H :    0.102805
  24 H :    0.084358
  25 H :    0.089286
  26 H :    0.081094
  27 H :    0.101120
  28 H :    0.117234
  29 H :    0.114108
  30 H :    0.121684
  31 H :    0.108287
  32 H :    0.240572
  33 H :    0.222138
  34 H :    0.111802
  35 H :    0.113310
  36 H :    0.099332
  37 H :    0.080030
  38 H :    0.100644
  39 H :    0.106642
  40 C :    0.014581
  41 O :   -0.246517
  42 C :    0.495690
  43 C :    0.003784
  44 O :   -0.275122
  45 O :   -0.388343
  46 H :    0.110972
  47 H :    0.108576
  48 O :   -0.359671
  49 C :    0.450604
  50 O :   -0.255586
  51 O :   -0.258865
  52 C :   -0.007388
  53 C :    0.024096
  54 H :    0.113141
  55 H :    0.097443
  56 H :    0.104156
  57 H :    0.094659
Sum of atomic charges:   -0.0000000

--------------------------------
MULLIKEN REDUCED ORBITAL CHARGES
--------------------------------
  0 O s       :     3.757975  s :     3.757975
      pz      :     1.476675  p :     4.549263
      px      :     1.342463
      py      :     1.730124
      dz2     :     0.008957  d :     0.027355
      dxz     :     0.004130
      dyz     :     0.007073
      dx2y2   :     0.004869
      dxy     :     0.002325
      f0      :     0.000215  f :     0.001268
      f+1     :     0.000202
      f-1     :     0.000316
      f+2     :     0.000189
      f-2     :     0.000203
      f+3     :     0.000087
      f-3     :     0.000055

  1 O s       :     3.769385  s :     3.769385
      pz      :     1.514834  p :     4.557162
      px      :     1.273224
      py      :     1.769104
      dz2     :     0.004750  d :     0.026970
      dxz     :     0.010252
      dyz     :     0.002774
      dx2y2   :     0.004642
      dxy     :     0.004554
      f0      :     0.000038  f :     0.001201
      f+1     :     0.000111
      f-1     :     0.000021
      f+2     :     0.000227
      f-2     :     0.000135
      f+3     :     0.000318
      f-3     :     0.000350

  2 C s       :     3.272049  s :     3.272049
      pz      :     0.879926  p :     2.522999
      px      :     0.710675
      py      :     0.932398
      dz2     :     0.025728  d :     0.121887
      dxz     :     0.032133
      dyz     :     0.017746
      dx2y2   :     0.021240
      dxy     :     0.025040
      f0      :     0.001440  f :     0.009586
      f+1     :     0.001371
      f-1     :     0.001281
      f+2     :     0.001759
      f-2     :     0.001329
      f+3     :     0.001190
      f-3     :     0.001216

  3 C s       :     3.296249  s :     3.296249
      pz      :     0.880793  p :     2.514922
      px      :     0.683369
      py      :     0.950761
      dz2     :     0.033387  d :     0.141543
      dxz     :     0.039720
      dyz     :     0.021576
      dx2y2   :     0.022149
      dxy     :     0.024712
      f0      :     0.001581  f :     0.009799
      f+1     :     0.002184
      f-1     :     0.000804
      f+2     :     0.001329
      f-2     :     0.001601
      f+3     :     0.001129
      f-3     :     0.001169

  4 C s       :     3.227658  s :     3.227658
      pz      :     0.841549  p :     2.651790
      px      :     0.844213
      py      :     0.966027
      dz2     :     0.038438  d :     0.137060
      dxz     :     0.032897
      dyz     :     0.019632
      dx2y2   :     0.022615
      dxy     :     0.023477
      f0      :     0.001624  f :     0.009602
      f+1     :     0.001937
      f-1     :     0.000891
      f+2     :     0.001523
      f-2     :     0.001264
      f+3     :     0.001295
      f-3     :     0.001069

  5 C s       :     3.119972  s :     3.119972
      pz      :     1.029097  p :     2.924465
      px      :     0.915164
      py      :     0.980204
      dz2     :     0.024890  d :     0.106798
      dxz     :     0.027437
      dyz     :     0.012181
      dx2y2   :     0.017937
      dxy     :     0.024354
      f0      :     0.000724  f :     0.007772
      f+1     :     0.001599
      f-1     :     0.000511
      f+2     :     0.001011
      f-2     :     0.001264
      f+3     :     0.001439
      f-3     :     0.001224

  6 C s       :     3.217499  s :     3.217499
      pz      :     0.842616  p :     2.653339
      px      :     0.898477
      py      :     0.912246
      dz2     :     0.031606  d :     0.148429
      dxz     :     0.038269
      dyz     :     0.022438
      dx2y2   :     0.031719
      dxy     :     0.024397
      f0      :     0.001152  f :     0.009700
      f+1     :     0.001622
      f-1     :     0.001407
      f+2     :     0.001844
      f-2     :     0.001194
      f+3     :     0.001286
      f-3     :     0.001194

  7 C s       :     3.106570  s :     3.106570
      pz      :     0.971731  p :     2.952584
      px      :     0.964036
      py      :     1.016817
      dz2     :     0.021443  d :     0.107043
      dxz     :     0.031693
      dyz     :     0.017691
      dx2y2   :     0.014092
      dxy     :     0.022124
      f0      :     0.001358  f :     0.007759
      f+1     :     0.001293
      f-1     :     0.000720
      f+2     :     0.001406
      f-2     :     0.001111
      f+3     :     0.001037
      f-3     :     0.000834

  8 C s       :     3.060978  s :     3.060978
      pz      :     0.766259  p :     2.570796
      px      :     0.925726
      py      :     0.878811
      dz2     :     0.042732  d :     0.181071
      dxz     :     0.038837
      dyz     :     0.033839
      dx2y2   :     0.036162
      dxy     :     0.029501
      f0      :     0.002905  f :     0.015710
      f+1     :     0.002373
      f-1     :     0.002512
      f+2     :     0.002896
      f-2     :     0.001877
      f+3     :     0.001557
      f-3     :     0.001590

  9 C s       :     3.190291  s :     3.190291
      pz      :     0.927644  p :     2.864503
      px      :     0.986008
      py      :     0.950851
      dz2     :     0.019602  d :     0.107374
      dxz     :     0.041756
      dyz     :     0.013315
      dx2y2   :     0.018275
      dxy     :     0.014426
      f0      :     0.001363  f :     0.007522
      f+1     :     0.001369
      f-1     :     0.000726
      f+2     :     0.001212
      f-2     :     0.000902
      f+3     :     0.001195
      f-3     :     0.000754

 10 C s       :     3.065911  s :     3.065911
      pz      :     0.932844  p :     2.542202
      px      :     0.720560
      py      :     0.888799
      dz2     :     0.034844  d :     0.175135
      dxz     :     0.048940
      dyz     :     0.025187
      dx2y2   :     0.025121
      dxy     :     0.041043
      f0      :     0.002096  f :     0.015464
      f+1     :     0.003249
      f-1     :     0.000960
      f+2     :     0.002000
      f-2     :     0.002583
      f+3     :     0.002420
      f-3     :     0.002156

 11 C s       :     3.170895  s :     3.170895
      pz      :     0.979856  p :     2.826826
      px      :     0.937703
      py      :     0.909267
      dz2     :     0.017619  d :     0.092838
      dxz     :     0.015853
      dyz     :     0.019507
      dx2y2   :     0.014778
      dxy     :     0.025080
      f0      :     0.000498  f :     0.004744
      f+1     :     0.000864
      f-1     :     0.000281
      f+2     :     0.000455
      f-2     :     0.000972
      f+3     :     0.000713
      f-3     :     0.000960

 12 C s       :     3.186520  s :     3.186520
      pz      :     0.835651  p :     2.806233
      px      :     0.963883
      py      :     1.006700
      dz2     :     0.032088  d :     0.095937
      dxz     :     0.015613
      dyz     :     0.015678
      dx2y2   :     0.025056
      dxy     :     0.007502
      f0      :     0.001175  f :     0.004783
      f+1     :     0.000958
      f-1     :     0.000769
      f+2     :     0.000836
      f-2     :     0.000611
      f+3     :     0.000162
      f-3     :     0.000272

 13 C s       :     3.114856  s :     3.114856
      pz      :     0.932815  p :     2.855540
      px      :     0.985592
      py      :     0.937134
      dz2     :     0.029940  d :     0.106949
      dxz     :     0.022925
      dyz     :     0.019095
      dx2y2   :     0.021736
      dxy     :     0.013252
      f0      :     0.001311  f :     0.007536
      f+1     :     0.000930
      f-1     :     0.001317
      f+2     :     0.001629
      f-2     :     0.000920
      f+3     :     0.000607
      f-3     :     0.000821

 14 C s       :     3.227581  s :     3.227581
      pz      :     0.967693  p :     2.865192
      px      :     0.895039
      py      :     1.002460
      dz2     :     0.018581  d :     0.093773
      dxz     :     0.027196
      dyz     :     0.012301
      dx2y2   :     0.013129
      dxy     :     0.022566
      f0      :     0.000656  f :     0.007599
      f+1     :     0.001565
      f-1     :     0.000562
      f+2     :     0.000978
      f-2     :     0.001282
      f+3     :     0.001367
      f-3     :     0.001189

 15 C s       :     3.190816  s :     3.190816
      pz      :     0.961291  p :     2.892449
      px      :     0.931508
      py      :     0.999650
      dz2     :     0.020334  d :     0.091155
      dxz     :     0.020469
      dyz     :     0.017192
      dx2y2   :     0.015265
      dxy     :     0.017895
      f0      :     0.001284  f :     0.007552
      f+1     :     0.001198
      f-1     :     0.000744
      f+2     :     0.001346
      f-2     :     0.001141
      f+3     :     0.001000
      f-3     :     0.000839

 16 C s       :     3.217321  s :     3.217321
      pz      :     0.951479  p :     2.833220
      px      :     0.956762
      py      :     0.924979
      dz2     :     0.004907  d :     0.106961
      dxz     :     0.023103
      dyz     :     0.011638
      dx2y2   :     0.022716
      dxy     :     0.044597
      f0      :     0.000984  f :     0.006392
      f+1     :     0.000477
      f-1     :     0.000466
      f+2     :     0.001021
      f-2     :     0.000605
      f+3     :     0.000878
      f-3     :     0.001962

 17 C s       :     3.192995  s :     3.192995
      pz      :     0.918023  p :     2.821902
      px      :     0.914967
      py      :     0.988911
      dz2     :     0.032384  d :     0.106057
      dxz     :     0.016866
      dyz     :     0.018701
      dx2y2   :     0.027822
      dxy     :     0.010284
      f0      :     0.001295  f :     0.006665
      f+1     :     0.001065
      f-1     :     0.000921
      f+2     :     0.001548
      f-2     :     0.000752
      f+3     :     0.000439
      f-3     :     0.000645

 18 C s       :     3.196596  s :     3.196596
      pz      :     0.991616  p :     2.976978
      px      :     0.928587
      py      :     1.056776
      dz2     :     0.002650  d :     0.067012
      dxz     :     0.016786
      dyz     :     0.001869
      dx2y2   :     0.010021
      dxy     :     0.035687
      f0      :     0.000889  f :     0.004247
      f+1     :     0.000334
      f-1     :     0.000282
      f+2     :     0.000838
      f-2     :     0.000236
      f+3     :     0.000512
      f-3     :     0.001156

 19 C s       :     3.189037  s :     3.189037
      pz      :     0.983227  p :     2.965721
      px      :     0.999849
      py      :     0.982645
      dz2     :     0.020532  d :     0.065320
      dxz     :     0.011222
      dyz     :     0.008931
      dx2y2   :     0.018508
      dxy     :     0.006127
      f0      :     0.000646  f :     0.004372
      f+1     :     0.000766
      f-1     :     0.000564
      f+2     :     0.001094
      f-2     :     0.000415
      f+3     :     0.000304
      f-3     :     0.000584

 20 H s       :     0.849187  s :     0.849187
      pz      :     0.018777  p :     0.042303
      px      :     0.010938
      py      :     0.012589
      dz2     :     0.000604  d :     0.002264
      dxz     :     0.000821
      dyz     :     0.000493
      dx2y2   :     0.000150
      dxy     :     0.000197

 21 H s       :     0.843761  s :     0.843761
      pz      :     0.013661  p :     0.041078
      px      :     0.013206
      py      :     0.014211
      dz2     :     0.000572  d :     0.002218
      dxz     :     0.000320
      dyz     :     0.000407
      dx2y2   :     0.000525
      dxy     :     0.000394

 22 H s       :     0.825354  s :     0.825354
      pz      :     0.013813  p :     0.037262
      px      :     0.013409
      py      :     0.010040
      dz2     :     0.000661  d :     0.002045
      dxz     :     0.000360
      dyz     :     0.000280
      dx2y2   :     0.000352
      dxy     :     0.000392

 23 H s       :     0.856026  s :     0.856026
      pz      :     0.010456  p :     0.039085
      px      :     0.013808
      py      :     0.014821
      dz2     :     0.000273  d :     0.002084
      dxz     :     0.000382
      dyz     :     0.000333
      dx2y2   :     0.000739
      dxy     :     0.000357

 24 H s       :     0.876296  s :     0.876296
      pz      :     0.015155  p :     0.037134
      px      :     0.010923
      py      :     0.011056
      dz2     :     0.000705  d :     0.002212
      dxz     :     0.000555
      dyz     :     0.000501
      dx2y2   :     0.000218
      dxy     :     0.000232

 25 H s       :     0.871534  s :     0.871534
      pz      :     0.009714  p :     0.037032
      px      :     0.009625
      py      :     0.017693
      dz2     :     0.000165  d :     0.002148
      dxz     :     0.000021
      dyz     :     0.000888
      dx2y2   :     0.000339
      dxy     :     0.000735

 26 H s       :     0.878923  s :     0.878923
      pz      :     0.010072  p :     0.037808
      px      :     0.017310
      py      :     0.010426
      dz2     :     0.000168  d :     0.002175
      dxz     :     0.000848
      dyz     :     0.000072
      dx2y2   :     0.000516
      dxy     :     0.000571

 27 H s       :     0.858842  s :     0.858842
      pz      :     0.010039  p :     0.037959
      px      :     0.016428
      py      :     0.011491
      dz2     :     0.000288  d :     0.002079
      dxz     :     0.000648
[...]
      pz      :     0.062384  p :     0.146742
      px      :     0.049556
      py      :     0.034801
      dz2     :     0.008321  d :     0.029215
      dxz     :     0.007927
      dyz     :     0.004371
      dx2y2   :     0.003874
      dxy     :     0.004721

 55 H s       :     0.816494  s :     0.816494
      pz      :     0.059100  p :     0.141786
      px      :     0.029027
      py      :     0.053660
      dz2     :     0.008419  d :     0.029121
      dxz     :     0.003998
      dyz     :     0.008471
      dx2y2   :     0.004171
      dxy     :     0.004062

 56 H s       :     0.813720  s :     0.813720
      pz      :     0.065208  p :     0.141300
      px      :     0.042999
      py      :     0.033093
      dz2     :     0.008679  d :     0.029308
      dxz     :     0.009031
      dyz     :     0.006291
      dx2y2   :     0.002520
      dxy     :     0.002787

 57 H s       :     0.811027  s :     0.811027
      pz      :     0.062918  p :     0.140971
      px      :     0.034029
      py      :     0.044024
      dz2     :     0.008039  d :     0.029357
      dxz     :     0.006509
      dyz     :     0.008504
      dx2y2   :     0.003127
      dxy     :     0.003180



                      *****************************
                      * MAYER POPULATION ANALYSIS *
                      *****************************

  NA   - Mulliken gross atomic population
  ZA   - Total nuclear charge
  QA   - Mulliken gross atomic charge
  VA   - Mayer's total valence
  BVA  - Mayer's bonded valence
  FA   - Mayer's free valence

  ATOM       NA         ZA         QA         VA         BVA        FA
  0 O      8.3359     8.0000    -0.3359     2.1650     2.1650    -0.0000
  1 O      8.3547     8.0000    -0.3547     2.1119     2.1119     0.0000
  2 C      5.9265     6.0000     0.0735     3.4117     3.4117    -0.0000
  3 C      5.9625     6.0000     0.0375     3.5865     3.5865    -0.0000
  4 C      6.0261     6.0000    -0.0261     3.6393     3.6393     0.0000
  5 C      6.1590     6.0000    -0.1590     3.9331     3.9331    -0.0000
  6 C      6.0290     6.0000    -0.0290     3.7780     3.7780    -0.0000
  7 C      6.1740     6.0000    -0.1740     3.9261     3.9261    -0.0000
  8 C      5.8286     6.0000     0.1714     4.0005     4.0005     0.0000
  9 C      6.1697     6.0000    -0.1697     3.9469     3.9469     0.0000
 10 C      5.7987     6.0000     0.2013     3.8623     3.8623     0.0000
 11 C      6.0953     6.0000    -0.0953     3.8944     3.8944     0.0000
 12 C      6.0935     6.0000    -0.0935     3.8916     3.8916    -0.0000
 13 C      6.0849     6.0000    -0.0849     3.9441     3.9441    -0.0000
 14 C      6.1941     6.0000    -0.1941     3.9023     3.9023    -0.0000
 15 C      6.1820     6.0000    -0.1820     4.0010     4.0010    -0.0000
 16 C      6.1639     6.0000    -0.1639     3.8155     3.8155     0.0000
 17 C      6.1276     6.0000    -0.1276     3.8200     3.8200    -0.0000
 18 C      6.2448     6.0000    -0.2448     3.9503     3.9503     0.0000
 19 C      6.2244     6.0000    -0.2244     3.9675     3.9675     0.0000
 20 H      0.8938     1.0000     0.1062     1.0189     1.0189    -0.0000
 21 H      0.8871     1.0000     0.1129     1.0178     1.0178    -0.0000
 22 H      0.8647     1.0000     0.1353     1.0080     1.0080     0.0000
 23 H      0.8972     1.0000     0.1028     1.0300     1.0300     0.0000
 24 H      0.9156     1.0000     0.0844     1.0126     1.0126    -0.0000
 25 H      0.9107     1.0000     0.0893     1.0068     1.0068     0.0000
 26 H      0.9189     1.0000     0.0811     1.0084     1.0084    -0.0000
 27 H      0.8989     1.0000     0.1011     1.0069     1.0069    -0.0000
 28 H      0.8828     1.0000     0.1172     1.0170     1.0170    -0.0000
 29 H      0.8859     1.0000     0.1141     1.0195     1.0195     0.0000
 30 H      0.8783     1.0000     0.1217     1.0098     1.0098    -0.0000
 31 H      0.8917     1.0000     0.1083     1.0100     1.0100    -0.0000
 32 H      0.7594     1.0000     0.2406     1.0400     1.0400    -0.0000
 33 H      0.7779     1.0000     0.2221     1.0534     1.0534    -0.0000
 34 H      0.8882     1.0000     0.1118     1.0116     1.0116     0.0000
 35 H      0.8867     1.0000     0.1133     1.0103     1.0103     0.0000
 36 H      0.9007     1.0000     0.0993     1.0094     1.0094    -0.0000
 37 H      0.9200     1.0000     0.0800     1.0152     1.0152     0.0000
 38 H      0.8994     1.0000     0.1006     0.9966     0.9966     0.0000
 39 H      0.8934     1.0000     0.1066     0.9982     0.9982     0.0000
 40 C      5.9854     6.0000     0.0146     3.8894     3.8894     0.0000
 41 O      8.2465     8.0000    -0.2465     2.1542     2.1542     0.0000
 42 C      5.5043     6.0000     0.4957     4.3570     4.3570    -0.0000
 43 C      5.9962     6.0000     0.0038     3.8769     3.8769     0.0000
 44 O      8.2751     8.0000    -0.2751     2.1211     2.1211     0.0000
 45 O      8.3883     8.0000    -0.3883     2.1023     2.1023     0.0000
 46 H      0.8890     1.0000     0.1110     1.0055     1.0055     0.0000
 47 H      0.8914     1.0000     0.1086     1.0057     1.0057     0.0000
 48 O      8.3597     8.0000    -0.3597     2.1434     2.1434     0.0000
 49 C      5.5494     6.0000     0.4506     4.4367     4.4367    -0.0000
 50 O      8.2556     8.0000    -0.2556     2.1241     2.1241     0.0000
 51 O      8.2589     8.0000    -0.2589     2.1249     2.1249     0.0000
 52 C      6.0074     6.0000    -0.0074     3.8854     3.8854    -0.0000
 53 C      5.9759     6.0000     0.0241     3.9182     3.9182     0.0000
 54 H      0.8869     1.0000     0.1131     1.0089     1.0089     0.0000
 55 H      0.9026     1.0000     0.0974     0.9932     0.9932    -0.0000
 56 H      0.8958     1.0000     0.1042     0.9983     0.9983    -0.0000
 57 H      0.9053     1.0000     0.0947     0.9945     0.9945    -0.0000

  Mayer bond orders larger than 0.100000
B(  0-O ,  8-C ) :   1.1429 B(  0-O , 32-H ) :   0.9469 B(  1-O , 10-C ) :   1.0660 
B(  1-O , 33-H ) :   0.9618 B(  2-C ,  3-C ) :   0.8473 B(  2-C ,  7-C ) :   1.3649 
B(  2-C ,  8-C ) :   1.2770 B(  3-C ,  5-C ) :   1.3977 B(  3-C ,  9-C ) :   1.3561 
B(  4-C ,  5-C ) :   1.4062 B(  4-C , 10-C ) :   1.3099 B(  4-C , 11-C ) :   0.9210 
B(  5-C , 20-H ) :   0.9664 B(  6-C ,  7-C ) :   1.4376 B(  6-C , 12-C ) :   0.9244 
B(  6-C , 13-C ) :   1.3774 B(  7-C , 21-H ) :   0.9520 B(  8-C , 15-C ) :   1.4371 
B(  9-C , 14-C ) :   1.4535 B(  9-C , 22-H ) :   0.9921 B( 10-C , 14-C ) :   1.3805 
B( 11-C , 16-C ) :   0.9241 B( 11-C , 23-H ) :   1.0091 B( 11-C , 24-H ) :   0.9881 
B( 12-C , 17-C ) :   0.9337 B( 12-C , 25-H ) :   1.0057 B( 12-C , 26-H ) :   1.0021 
B( 13-C , 15-C ) :   1.4719 B( 13-C , 27-H ) :   0.9775 B( 14-C , 28-H ) :   0.9971 
B( 15-C , 29-H ) :   0.9760 B( 16-C , 18-C ) :   1.8781 B( 16-C , 30-H ) :   0.9827 
B( 17-C , 19-C ) :   1.9082 B( 17-C , 31-H ) :   0.9807 B( 18-C , 34-H ) :   0.9978 
B( 18-C , 35-H ) :   1.0008 B( 19-C , 36-H ) :   0.9973 B( 19-C , 37-H ) :   0.9995 
B( 38-H , 40-C ) :   0.9926 B( 39-H , 43-C ) :   0.9860 B( 40-C , 43-C ) :   0.9599 
B( 40-C , 44-O ) :   0.9039 B( 40-C , 46-H ) :   0.9823 B( 41-O , 42-C ) :   1.1823 
B( 41-O , 43-C ) :   0.9136 B( 42-C , 44-O ) :   1.1409 B( 42-C , 45-O ) :   1.9544 
B( 43-C , 47-H ) :   0.9800 B( 48-O , 49-C ) :   2.0415 B( 49-C , 50-O ) :   1.1546 
B( 49-C , 51-O ) :   1.1501 B( 50-O , 52-C ) :   0.9160 B( 51-O , 53-C ) :   0.9287 
B( 52-C , 53-C ) :   0.9651 B( 52-C , 54-H ) :   0.9826 B( 52-C , 56-H ) :   0.9860 
B( 53-C , 55-H ) :   0.9908 B( 53-C , 57-H ) :   0.9807 

-------
TIMINGS
-------

Total SCF time: 0 days 0 hours 2 min 21 sec 

Total time                  ....     141.334 sec
Sum of individual times     ....     141.303 sec  (100.0%)

SCF preparation             ....       1.096 sec  (  0.8%)
Fock matrix formation       ....     127.555 sec  ( 90.3%)
  Startup                   ....       0.397 sec  (  0.3% of F)
  Split-RI-J                ....       8.744 sec  (  6.9% of F)
  Chain of spheres X        ....     109.016 sec  ( 85.5% of F)
  XC integration            ....       8.066 sec  (  6.3% of F)
    XC Preparation          ....       0.000 sec  (  0.0% of XC)
    Basis function eval.    ....       1.658 sec  ( 20.6% of XC)
    Density eval.           ....       2.373 sec  ( 29.4% of XC)
    XC-Functional eval.     ....       0.162 sec  (  2.0% of XC)
    XC-Potential eval.      ....       2.324 sec  ( 28.8% of XC)
Diagonalization             ....       0.000 sec  (  0.0%)
Density matrix formation    ....       1.423 sec  (  1.0%)
Total Energy calculation    ....       0.511 sec  (  0.4%)
Population analysis         ....       0.385 sec  (  0.3%)
Orbital Transformation      ....       1.324 sec  (  0.9%)
Orbital Orthonormalization  ....       0.000 sec  (  0.0%)
DIIS solution               ....       6.158 sec  (  4.4%)
SOSCF solution              ....       2.851 sec  (  2.0%)
Finished LeanSCF after 141.5 sec

Maximum memory used throughout the entire LEANSCF-calculation: 246.7 MB


-------------------------------------------------------------------------------
                          DFT DISPERSION CORRECTION                            
                                                                               
                              DFTD3 V3.1  Rev 1                                
                              USING zero damping                               
-------------------------------------------------------------------------------
The omegaB97X-D3 functional is recognized. Fit by Chai et al.
Active option DFTDOPT                   ...         3   

molecular C6(AA) [au] = 35087.941211 


            DFT-D V3
 parameters
 s6 scaling factor         :     1.0000 
 rs6 scaling factor        :     1.2810 
 s8 scaling factor         :     1.0000 
 rs8 scaling factor        :     1.0940 
 Damping factor alpha6     :    14.0000 
 Damping factor alpha8     :    16.0000 
 ad hoc parameters k1-k3   :    16.0000     1.3333    -4.0000 

 Edisp/kcal,au: -20.394481214209  -0.032500671116 
 E6   /kcal   : -10.434413369 
 E8   /kcal   :  -9.960067845 
 % E8         :  48.837073815 

-------------------------   ----------------
Dispersion correction           -0.032500671
-------------------------   ----------------


-------------------------   --------------------
FINAL SINGLE POINT ENERGY     -1532.187260452699
-------------------------   --------------------

--------------------------------------------------------------------------
WARNING: There was an error initializing an OpenFabrics device.

  Local host:   ga01
  Local device: mlx5_0
--------------------------------------------------------------------------


           ************************************************************
           *        Program running with 25 parallel MPI-processes    *
           *              working on a common directory               *
           ************************************************************

------------------------------------------------------------------------------
                              ORCA PROPERTY CALCULATIONS
------------------------------------------------------------------------------

GBWName                                 ... honokiol2-opt_EC2.gbw
Number of atoms                         ...     58
Number of basis functions               ...   1356
Max core memory                         ...   5000 MB

Electric properties:
Dipole moment                           ... YES
Quadrupole moment                       ...  NO
Static polarizability (Dipole/Dipole)   ...  NO
Static polarizability (Dipole/Quad.)    ...  NO
Static polarizability (Quad./Quad.)     ...  NO
Static polarizability (Velocity)        ...  NO

Atomic electric properties:
Dipole moment                           ...  NO
Quadrupole moment                       ...  NO
Static polarizability                   ...  NO

Choice of electric origin               ... Center of mass
Position of electric origin             ...    -2.847151     1.943557     1.729763

General magnetic properties:
Magnetizability                         ...  NO

EPR properties:
g-Tensor (aka g-matrix)                 ...  NO
Zero-Field splitting spin-orbit         ...  NO
Zero-field splitting spin-spin          ...  NO
Hyperfine couplings                     ...  NO (   0 nuclei)
Quadrupole couplings                    ...  NO (   0 nuclei)
Contact density                         ...  NO (   0 nuclei)

NMR properties:
Chemical shifts                         ...  NO (   0 nuclei)
Spin-rotation constants                 ...  NO (   0 nuclei)
Spin-spin couplings                     ...  NO (   0 nuclei,    0 pairs)

Choice of magnetic origin               ... GIAO
Position of magnetic origin             ...     0.000000     0.000000     0.000000

Properties with geometric perturbations:
SCF Hessian                             ...  NO
IR spectrum                             ...  NO
VCD spectrum                            ...  NO
X-ray spectroscopy properties:
SCF XES/XAS/RIXS spectra                ...  NO


-------------
DIPOLE MOMENT
-------------

Method             : SCF
Type of density    : Electron Density
Multiplicity       :   1
Irrep              :   0
Energy             : -1532.1547597815829249 Eh
Relativity type    : 
Basis              : AO
                                X                 Y                 Z
Electronic contribution:     -4.429692054       8.891917037      16.049136803
Nuclear contribution   :      3.187682464      -8.178933687     -15.906434046
                        -----------------------------------------
Total Dipole Moment    :     -1.242009590       0.712983350       0.142702757
                        -----------------------------------------
Magnitude (a.u.)       :      1.439200179
Magnitude (Debye)      :      3.658156137



--------------------
Rotational spectrum 
--------------------
 
Rotational constants in cm-1:             0.005651             0.002867             0.002714 
Rotational constants in MHz :           169.400348            85.964820            81.350654 

Dipole components along the rotational axes: 
x,y,z [a.u.] :     1.312812     0.032178    -0.588886 
x,y,z [Debye]:     3.336903     0.081790    -1.496829 

 

Dipole moment calculation done in   0.1 sec 

Maximum memory used throughout the entire PROP-calculation: 149.5 MB
[ga01:890115] 24 more processes have sent help message help-mpi-btl-openib.txt / error in device init
[ga01:890115] Set MCA parameter "orte_base_help_aggregate" to 0 to see all help / error messages
--------------------------------------------------------------------------
WARNING: There was an error initializing an OpenFabrics device.

  Local host:   ga01
  Local device: mlx5_0
--------------------------------------------------------------------------
[ga01:890219] 24 more processes have sent help message help-mpi-btl-openib.txt / error in device init
[ga01:890219] Set MCA parameter "orte_base_help_aggregate" to 0 to see all help / error messages

--------------------------------
SUGGESTED CITATIONS FOR THIS RUN
--------------------------------

Below you find a list of papers that are relevant to this ORCA run
We neither can nor want to force you to cite these papers, but we appreciate if you do
You receive ORCA, which is the product of decades of hard work by many enthusiastic individuals, for free
The only thing we kindly ask in return is that you cite our papers,
We deeply appreciate it, if you show your appreciation for ORCA by not just citing the generic ORCA reference.

Please note that relegating all ORCA citations to the supporting information does *not* help us.
SI sections are not indexed - citations you put there will not count into any citation statistics
But we need these citations in order to attract the funding resources that allow us to do what we are doing

Therefore, if you are a happy ORCA user, please consider citing a few of the papers listed below in the main body of your paper

In addition to the list printed below, the program has created the file honokiol2-opt_EC2.bibtex that contains the list in bibtex format
You can import this file easily into all common literature databanks and citation aid programs


List of essential papers. We consider these as the minimum necessary citations

  1. Neese,F.
     Software update: the ORCA program system, version 5.0
     WIRES Comput. Molec. Sci., 2022 12(1)e1606
     doi.org/10.1002/wcms.1606

List of papers to cite with high priority. The work reported in these papers was absolutely
necessary for this run to complete.
Our perspective: the developers of density functionals and basis sets usually get cited in chemistry papers
Good! But without the algorithms to do something with them, the functionals or basis sets would not do anything.
Hence, in our opinion, the algorithm design and method developments papers are equally worthy of getting cited

  1. Neese,F.
     An improvement of the resolution of the identity approximation for the formation of the Coulomb matrix
     J. Comp. Chem., 2003 24(14)1740-1747
     doi.org/10.1002/jcc.10318
  2. Neese,F.; Wennmohs,F.; Hansen,A.; Becker,U.
     Efficient, approximate and parallel Hartree-Fock and hybrid DFT calculations. A 'chain-of-spheres' algorithm for the Hartree-Fock exchange
     Chem. Phys., 2009 356(1-3)98-109
     doi.org/10.1016/j.chemphys.2008.10.036
  3. Helmich-Paris,B.; de Souza,B.; Neese,F.; Izsák,R.
     An improved chain of spheres for exchange algorithm
     J. Chem. Phys., 2021 155 104109
     doi.org/doi: 10.1063/5.0058766.
  4. Neese,F.
     The SHARK Integral Generation and Digestion System
     J. Comp. Chem., 2022  1-16
     doi.org/10.1002/jcc.26942
  5. Grimme,S.; Antony,J.; Ehrlich,S.; Krieg,H.
     A consistent and accurate ab initio parametrization of density functional dispersion correction (DFT-D) for the 94 elements H-Pu
     J. Chem. Phys., 2010 132 154104
     doi.org/10.1063/1.3382344

List of suggested additional citations. These are papers that are important in the 'surrounding' of 
of this run, or papers that preceded the highly important papers. If you like your results we are grateful for a citation.

  1. Izsak,R.; Neese,F.
     An overlap fitted chain of spheres exchange method
     J. Chem. Phys., 2011 135 144105
     doi.org/10.1063/1.3646921
  2. Izsak,R.; Hansen,A.; Neese,F.
     The resolution of identity and chain of spheres approximations for the LPNO-CCSD singles Fock term
     Molec. Phys., 2012 110 2413-2417
     doi.org/10.1080/00268976.2012.687466
  3. Neese,F.
     The ORCA program system
     WIRES Comput. Molec. Sci., 2012 2(1)73-78
     doi.org/10.1002/wcms.81
  4. Izsak,R.; Neese,F.; Klopper,W.
     Robust fitting techniques in the chain of spheres approximation to the Fock exchange: The role of the complementary space
     J. Chem. Phys., 2013 139 
     doi.org/10.1063/1.4819264
  5. Neese,F.
     Software update: the ORCA program system, version 4.0
     WIRES Comput. Molec. Sci., 2018 8(1)1-6
     doi.org/10.1002/wcms.1327
  6. Neese,F.; Wennmohs,F.; Becker,U.; Riplinger,C.
     The ORCA quantum chemistry program package
     J. Chem. Phys., 2020 152 Art. No. L224108
     doi.org/10.1063/5.0004608

List of optional additional citations

  1. Neese,F.
     Approximate second-order SCF convergence for spin unrestricted wavefunctions
     Chem. Phys. Lett., 2000 325(1-3)93-98
     doi.org/10.1016/s0009-2614(00)00662-x

Timings for individual modules:

Sum of individual times          ...      152.859 sec (=   2.548 min)
Startup calculation              ...        6.109 sec (=   0.102 min)   4.0 %
SCF iterations                   ...      145.411 sec (=   2.424 min)  95.1 %
Property calculations            ...        1.339 sec (=   0.022 min)   0.9 %
                             ****ORCA TERMINATED NORMALLY****
TOTAL RUN TIME: 0 days 0 hours 2 minutes 33 seconds 966 msec
