
                                 *****************
                                 * O   R   C   A *
                                 *****************

                                            #,                                       
                                            ###                                      
                                            ####                                     
                                            #####                                    
                                            ######                                   
                                           ########,                                 
                                     ,,################,,,,,                         
                               ,,#################################,,                 
                          ,,##########################################,,             
                       ,#########################################, ''#####,          
                    ,#############################################,,   '####,        
                  ,##################################################,,,,####,       
                ,###########''''           ''''###############################       
              ,#####''   ,,,,##########,,,,          '''####'''          '####       
            ,##' ,,,,###########################,,,                        '##       
           ' ,,###''''                  '''############,,,                           
         ,,##''                                '''############,,,,        ,,,,,,###''
      ,#''                                            '''#######################'''  
     '                                                          ''''####''''         
             ,#######,   #######,   ,#######,      ##                                
            ,#'     '#,  ##    ##  ,#'     '#,    #''#        ,####,   ,####,        
            ##       ##  ##   ,#'  ##            #'  '#       #'       #'  '#        
            ##       ##  #######   ##           ,######,      #####,   #    #        
            '#,     ,#'  ##    ##  '#,     ,#' ,#      #,     #,   #   #,  ,#        
             '#######'   ##     ##  '#######'  #'      '#     '####' # '####'        



                #########################################################
                #                        -***-                          #
                #          Department of theory and spectroscopy        #
                #                                                       #
                #                      Frank Neese                      #
                #                                                       #
                #     Directorship, Architecture, Infrastructure        #
                #                    SHARK, DRIVERS                     #
                #        Core code/Algorithms in most modules           #
                #                                                       #
                #        Max Planck Institute fuer Kohlenforschung      #
                #                Kaiser Wilhelm Platz 1                 #
                #                 D-45470 Muelheim/Ruhr                 #
                #                      Germany                          #
                #                                                       #
                #                  All rights reserved                  #
                #                        -***-                          #
                #########################################################


                         Program Version 6.0.1  -  RELEASE   -


 With contributions from (in alphabetic order):
[Max-Planck-Institut fuer Kohlenforschung]                               
  Daniel Aravena         : Magnetic Suceptibility                        
  Michael Atanasov       : Ab Initio Ligand Field Theory (pilot matlab implementation)
  Alexander A. Auer      : GIAO ZORA, VPT2 properties, NMR spectrum      
  Ute Becker             : All parallelization in ORCA, NUMFREQ, NUMCALC 
  Giovanni Bistoni       : ED, misc. LED, open-shell LED, HFLD           
  Martin Brehm           : Molecular dynamics                            
  Dmytro Bykov           : pre 5.0 version of the SCF Hessian            
  Marcos Casanova-Páez   : Triplet and SCS-CIS(D). UHF-(DLPNO)-IP/EA/STEOM-CCSD. UHF-CVS-IP/STEOM-CCSD   
  Vijay G. Chilkuri      : MRCI spin determinant printing, contributions to CSF-ICE 
  Pauline Colinet        : FMM embedding                                 
  Dipayan Datta          : RHF DLPNO-CCSD density                        
  Achintya Kumar Dutta   : EOM-CC, STEOM-CC                              
  Nicolas Foglia         : Exact transition moments, OPA infrastructure, MCD improvements    
  Dmitry Ganyushin       : Spin-Orbit,Spin-Spin,Magnetic field MRCI      
  Miquel Garcia-Rates    : C-PCM and meta-GGA Hessian, CCSD/C-PCM, Gaussian charge scheme 
  Tiago L. C. Gouveia    : GS-ROHF, GS-ROCIS                             
  Yang Guo               : DLPNO-NEVPT2, F12-NEVPT2, CIM, IAO-localization        
  Andreas Hansen         : Spin unrestricted coupled pair/coupled cluster methods 
  Ingolf Harden          : AUTO-CI MPn and infrastructure                
  Benjamin Helmich-Paris : MC-RPA, TRAH-(SCF,CASSCF), AVAS, COSX integrals, SCF dyn. polar. 
  Lee Huntington         : MR-EOM, pCC                                   
  Robert Izsak           : Overlap fitted RIJCOSX, COSX-SCS-MP3, EOM     
  Riya Kayal             : Wick's Theorem for AUTO-CI, AUTO-CI UHF-CCSDT 
  Emily Kempfer          : AUTO-CI, RHF CISDT and CCSDT                  
  Christian Kollmar      : KDIIS, OOCD, Brueckner-CCSD(T), CCSD density, CASPT2, CASPT2-K, improved NEVPT2 
  Axel Koslowski         : Symmetry handling                             
  Simone Kossmann        : meta-GGA functionals, TD-DFT gradient, OOMP2, (MP2 Hessian; deprecated post 5.0) 
  Lucas Lang             : DCDCAS                                        
  Marvin Lechner         : AUTO-CI (C++ implementation), FIC-MRCC        
  Spencer Leger          : CASSCF response                               
  Dagmar Lenk            : GEPOL surface, SMD, ORCA-2-JSON               
  Dimitrios Liakos       : Extrapolation schemes; Compound Job, initial MDCI parallelization 
  Dimitrios Manganas     : Further ROCIS development; embedding schemes. LFT, Crystal Embedding 
  Dimitrios Pantazis     : SARC Basis sets                               
  Anastasios Papadopoulos: AUTO-CI, single reference methods and gradients 
  Taras Petrenko         : pre 6.0 DFT Hessian and TD-DFT gradient, (ASA, deprecated), ECA, 1-Electron XAS/XES, NRVS 
  Peter Pinski           : DLPNO-MP2, DLPNO-MP2 Gradient                 
  Christoph Reimann      : Effective Core Potentials                     
  Marius Retegan         : Local ZFS, SOC                                
  Christoph Riplinger    : Optimizer, TS searches, QM/MM, DLPNO-CCSD(T), (RO)-DLPNO pert. Triples 
  Michael Roemelt        : Original ROCIS implementation                 
  Masaaki Saitow         : Open-shell DLPNO-CCSD energy and density      
  Barbara Sandhoefer     : DKH picture change effects                    
  Kantharuban Sivalingam : CASSCF convergence/infrastructure, NEVPT2 and variants, FIC-MRCI 
  Bernardo de Souza      : ESD, SOC TD-DFT                               
  Georgi L. Stoychev     : AutoAux, RI-MP2 NMR, DLPNO-MP2 response, X2C  
  Van Anh Tran           : RI-MP2 g-tensors                              
  Willem Van den Heuvel  : Paramagnetic NMR                              
  Zikuan Wang            : NOTCH, Electric field optimization            
  Frank Wennmohs         : Technical directorship and infrastructure     
  Hang Xu                : AUTO-CI-Response properties                   
                                                                         
[FACCTs GmbH]                                                            
  Markus Bursch, Miquel Garcia-Rates, Christoph Riplinger, Bernardo de Souza, Georgi L. Stoychev 
                                                                 
  APM, Basis sets (HGBS, AHGBS, def-TZVP (Ac-Lr), def2-XVPD (La-Lu)), CI-OPT, improved COSX, DLPNO-Multilevel,           
  DOCKER, DRACO, updates on ESD, GOAT, IRC, LR-CPCM, MBIS, meta-GGA TD-DFT gradient, ML-optimized integration grids, 
  MM, NACMEs, nearIR, NEB, NEB-TS, NL-DFT gradient (VV10), 2- and 3-layer-ONIOM, interface openCOSMO-RS, QMMM,   
  Crystal-QMMM, SF, symmetry and pop. for TD-DFT, r2SCAN hybrids, SOLVATOR                                   
                                                                         
[Other institutions]                                                     
  V. Asgeirsson          : NEB                                           
  Christoph Bannwarth    : sTDA-DFT, sTD-DFT, PBEh-3c, B97-3c, D3        
  Sebastian Ehlert       : rSCAN, r2SCAN, r2SCAN-3c, D4, dhf basis sets  
  Marvin Friede          : D4 for Fr, Ra, Ac-Lr                          
  Lars Goerigk           : TD-DFT with DH, B97 family of functionals     
  Stefan Grimme          : VdW corrections, initial TS optimization, DFT functionals, gCP, sTDA/sTD-DF 
  Waldemar Hujo          : DFT-NL                                        
  H. Jonsson             : NEB                                           
  Holger Kruse           : gCP                                           
  Marcel Mueller         : wB97X-3c, vDZP basis set                      
  Hagen Neugebauer       : wr2SCAN                                       
  Tobias Risthaus        : range-separated hybrid DFT                    
  Lukas Wittmann         : regularized MP2, r2SCAN double-hybrids, wr2SCAN        
                                                                         
We gratefully acknowledge several colleagues who have allowed us to      
interface, adapt or use parts of their codes:                            
  Ed Valeev, F. Pavosevic, A. Kumar             : LibInt (2-el integral package), F12 methods 
  Garnet Chan, S. Sharma, J. Yang, R. Olivares  : DMRG                   
  Ulf Ekstrom                                   : XCFun DFT Library      
  Mihaly Kallay                                 : mrcc  (arbitrary order and MRCC methods)
  Frank Weinhold                                : gennbo (NPA and NBO analysis)           
  Simon Mueller                                 : openCOSMO-RS                            
  Christopher J. Cramer and Donald G. Truhlar   : smd solvation model                     
  S Lehtola, MJT Oliveira, MAL Marques          : LibXC Library                           
  Liviu Ungur et al                             : ANISO software                          


 Your calculation uses the libint2 library for the computation of 2-el integrals
 For citations please refer to: http://libint.valeyev.net

 Your ORCA version has been built with support for libXC version: 6.2.2
 For citations please refer to: https://libxc.gitlab.io

 This ORCA versions uses:
   CBLAS   interface :  Fast vector & matrix operations
   LAPACKE interface :  Fast linear algebra routines
   SCALAPACK package :  Parallel linear algebra routines
   Shared memory     :  Shared parallel matrices
   BLAS/LAPACK       :  OpenBLAS 0.3.27  USE64BITINT DYNAMIC_ARCH NO_AFFINITY SkylakeX SINGLE_THREADED
        Core in use  :  SkylakeX
   Copyright (c) 2011-2014, The OpenBLAS Project


NOTE: MaxCore=5000 MB was set to SCF,MP2,MDCI,CIPSI,MRCI and CIS
      => If you want to overwrite this, your respective input block should be placed after the MaxCore statement
Warning: RI is on but no J-basis has been assigned. Assigning Def2/J (nothing to worry about!)
================================================================================

----- Orbital basis set information -----
Your calculation utilizes the basis: def2-TZVP
   F. Weigend and R. Ahlrichs, Phys. Chem. Chem. Phys. 7, 3297 (2005).

----- AuxJ basis set information -----
Your calculation utilizes the auxiliary basis: def2/J
   F. Weigend, Phys. Chem. Chem. Phys. 8, 1057 (2006).

================================================================================
                                        WARNINGS
                       Please study these warnings very carefully!
================================================================================


WARNING: Geometry Optimization
  ===> : Switching off AutoStart
         For restart on a previous wavefunction, please use MOREAD

================================================================================
                                       INPUT FILE
================================================================================
NAME = honokiol2-opt_FEC2.inp
|  1> ! OPT B3LYP def2-TZVP TightSCF
|  2> 
|  3> %maxcore 5000
|  4> 
|  5> %pal
|  6> nprocs 25
|  7> end
|  8> 
|  9> * xyz 0 1
| 10> O        1.4378139690      1.3195661235      2.4846843332                 
| 11> O       -3.6234784392     -2.4172476261      2.1711296358                 
| 12> C        1.2316508747     -0.0452440627      0.4817526856                 
| 13> C       -0.0501295459     -0.6510174407      0.9272245169                 
| 14> C       -2.4024759936     -1.1701844750      0.4805485812                 
| 15> C       -1.1861958465     -0.5988938885      0.1143732559                 
| 16> C        2.9867134943      0.1617234126     -1.2121583974                 
| 17> C        1.7864084777     -0.3790163602     -0.7557909566                 
| 18> C        1.9136446812      0.8917012095      1.2783982648                 
| 19> C       -0.1652800460     -1.3115486672      2.1572460316                 
| 20> C       -2.4771908492     -1.8350995348      1.7152730738                 
| 21> C       -3.6188231316     -1.0376314015     -0.4145222949                 
| 22> C        3.5576306637     -0.2451035689     -2.5577859631                 
| 23> C        3.6421187806      1.0766477396     -0.3896775700                 
| 24> C       -1.3613188329     -1.8963360126      2.5450015093                 
| 25> C        3.1126486007      1.4427193920      0.8396092968                 
| 26> C       -4.2044651309     -2.3528284400     -0.8606614678                 
| 27> C        2.6825503367      0.1391758189     -3.7190133238                 
| 28> C       -5.4758298944     -2.7129338946     -0.7095144037                 
| 29> C        2.1941432179     -0.7034841813     -4.6214319285                 
| 30> H       -1.1246082271     -0.0761530641     -0.8334873778                 
| 31> H        1.2640322567     -1.1006001298     -1.3739214573                 
| 32> H        0.7008179833     -1.4037257393      2.8019448401                 
| 33> H       -4.3961225376     -0.4520252456      0.0890069602                 
| 34> H       -3.3251032997     -0.4664904020     -1.3000436612                 
| 35> H        3.7333084446     -1.3251045492     -2.5829711451                 
| 36> H        4.5359707185      0.2324602654     -2.6760593020                 
| 37> H        4.5807689334      1.5130785794     -0.7119648283                 
| 38> H       -1.4451310488     -2.4239858047      3.4863615777                 
| 39> H        3.6125071571      2.1655921009      1.4715091226                 
| 40> H       -3.5103740987     -3.0409853560     -1.3366432547                 
| 41> H        2.4439570110      1.1973323924     -3.7963031512                 
| 42> H        0.5660773120      0.9317181704      2.6407788884                 
| 43> H       -4.2348821290     -2.5726546693      1.4367226504                 
| 44> H       -5.8390748728     -3.6710786874     -1.0589561646                 
| 45> H       -6.2028307461     -2.0540384265     -0.2452358997                 
| 46> H        1.5717158363     -0.3620514741     -5.4393010668                 
| 47> H        2.4041958508     -1.7670453117     -4.5782351147                 
| 48> H       -3.7819124477      1.5046688750      2.4301564483                 
| 49> H       -3.8867929422      0.2887540767      4.5462047808                 
| 50> O       -2.3065650109      1.5100397865      4.9534857776                 
| 51> C       -3.6499586806      1.3491506690      4.6071281732                 
| 52> C       -3.7926348963      2.1455748541      3.3129777241                 
| 53> C       -1.7535867024      2.5545063398      4.2458271669                 
| 54> O       -0.6704794347      2.9901686447      4.4333555721                 
| 55> O       -2.6291349035      2.9781576524      3.3063391611                 
| 56> F       -4.6841666607      2.7689057419      3.3197929694                 
| 57> H       -4.4424741478      1.8913455779      5.5966968645                 
| 58> H        1.8329521014      6.5049420870     -0.7906799666                 
| 59> H        2.8454988130      4.8061390611     -0.5276658488                 
| 60> C        1.8170451255      5.1313149483     -0.6718007341                 
| 61> F        0.5500524784      5.5249818609      1.0550504506                 
| 62> C        0.8188621288      4.6998131827      0.3990491439                 
| 63> H        1.1794165696      3.8509802697      0.9818752939                 
| 64> O        1.3097767922      4.5734049408     -1.8473807703                 
| 65> O       -0.3273800194      4.3000461543     -0.3581266355                 
| 66> C       -0.0000666508      4.1876399327     -1.6653806239                 
| 67> O       -0.7102496895      3.8033283026     -2.5291389711
| 68> *
| 69> 
| 70>                          ****END OF INPUT****
================================================================================

                       *****************************
                       * Geometry Optimization Run *
                       *****************************

Geometry optimization settings:
Update method            Update   .... BFGS
Choice of coordinates    CoordSys .... (2022) Redundant Internals
Initial Hessian          InHess   .... Almloef's Model
Max. no of cycles        MaxIter  .... 174

Convergence Tolerances:
Energy Change            TolE     ....  5.0000e-06 Eh
Max. Gradient            TolMAXG  ....  3.0000e-04 Eh/bohr
RMS Gradient             TolRMSG  ....  1.0000e-04 Eh/bohr
Max. Displacement        TolMAXD  ....  4.0000e-03 bohr
RMS Displacement         TolRMSD  ....  2.0000e-03 bohr
Strict Convergence                .... False

------------------------------------------------------------------------------
                        ORCA OPTIMIZATION COORDINATE SETUP
------------------------------------------------------------------------------

The optimization will be done in redundant internal coordinates (2022)
Making redundant internal coordinates   ...  (2022 redundants) done
Evaluating the initial hessian          ...  (Almloef) done
Evaluating the coordinates              ...  done
Calculating the B-matrix                .... done
Calculating the G-matrix                .... done
Diagonalizing the G-matrix              .... done
Small eigenvalue found = 4.209e-03
Small eigenvalue found = 5.785e-03
Small eigenvalue found = 1.172e-02
Small eigenvalue found = 1.566e-02
Small eigenvalue found = 2.086e-02
Small eigenvalue found = 2.381e-02
The first mode is                       ....  312
The number of degrees of freedom        ....  168

    -----------------------------------------------------------------
                    Redundant Internal Coordinates


    -----------------------------------------------------------------
         Definition                    Initial Value    Approx d2E/dq
    -----------------------------------------------------------------
      1. B(C   3,C   2)                  1.4861         0.439020   
      2. B(C   5,C   4)                  1.3928         0.618482   
      3. B(C   5,C   3)                  1.3979         0.606951   
      4. B(C   7,C   6)                  1.3933         0.617172   
      5. B(C   7,C   2)                  1.3967         0.609683   
      6. B(C   8,C   2)                  1.4063         0.588523   
      7. B(C   8,O   0)                  1.3655         0.612283   
      8. B(C   9,C   3)                  1.4009         0.600278   
      9. B(C  10,C   4)                  1.4044         0.592681   
     10. B(C  10,O   1)                  1.3641         0.615533   
     11. B(C  11,C   4)                  1.5160         0.393307   
     12. B(C  12,C   6)                  1.5173         0.391432   
     13. B(C  13,C   6)                  1.3940         0.615779   
     14. B(C  14,C   9)                  1.3867         0.632499   
     15. B(C  14,C  10)                  1.3919         0.620464   
     16. B(C  15,C   8)                  1.3906         0.623422   
     17. B(C  15,C  13)                  1.3876         0.630280   
     18. B(C  16,C  11)                  1.5072         0.406159   
     19. B(C  17,C  12)                  1.5040         0.411082   
     20. B(C  18,C  16)                  1.3300         0.778881   
     21. B(C  19,C  17)                  1.3278         0.785273   
     22. B(H  20,C   5)                  1.0842         0.367854   
     23. B(H  21,C   7)                  1.0843         0.367758   
     24. B(H  22,C   9)                  1.0836         0.368623   
     25. B(H  23,C  11)                  1.0958         0.352572   
     26. B(H  24,C  11)                  1.0939         0.354975   
     27. B(H  25,C  12)                  1.0945         0.354215   
     28. B(H  26,C  12)                  1.0951         0.353439   
     29. B(H  27,C  13)                  1.0842         0.367908   
     30. B(H  28,C  14)                  1.0824         0.370291   
     31. B(H  29,C  15)                  1.0825         0.370226   
     32. B(H  30,C  16)                  1.0871         0.363899   
     33. B(H  31,C  17)                  1.0875         0.363460   
     34. B(H  32,O   0)                  0.9668         0.507115   
     35. B(H  33,O   1)                  0.9682         0.504615   
     36. B(H  34,C  18)                  1.0826         0.369976   
     37. B(H  35,C  18)                  1.0855         0.366153   
     38. B(H  36,C  19)                  1.0830         0.369472   
     39. B(H  37,C  19)                  1.0850         0.366822   
     40. B(H  38,H  23)                  3.1124         0.000041   
     41. B(H  38,C  10)                  3.6561         0.000029   
     42. B(H  38,C   4)                  3.5859         0.000038   
     43. B(H  38,C  11)                  3.8186         0.000016   
     44. B(H  39,C  14)                  3.8933         0.000012   
     45. B(H  39,C  10)                  3.8094         0.000017   
     46. B(H  39,H  28)                  3.8005         0.000003   
     47. B(H  39,O   1)                  3.6101         0.000031   
     48. B(O  40,H  39)                  2.0383         0.009901   
     49. B(O  40,H  32)                  3.7330         0.000020   
     50. B(C  41,O  40)                  1.3966         0.546146   
     51. B(C  41,H  39)                  1.0882         0.362450   
     52. B(C  42,C  41)                  1.5263         0.378741   
     53. B(C  42,H  38)                  1.0910         0.358799   
     54. B(C  43,O  40)                  1.3775         0.585917   
     55. B(C  43,O   0)                  3.8486         0.000067   
     56. B(C  43,H  32)                  3.2543         0.000127   
     57. B(O  44,C  43)                  1.1824         1.199705   
     58. B(O  44,O   0)                  3.3216         0.000415   
     59. B(O  44,H  32)                  2.9966         0.000293   
     60. B(O  45,C  43)                  1.3523         0.642733   
     61. B(O  45,C  42)                  1.4307         0.481841   
     62. B(O  45,H  32)                  3.8523         0.000013   
     63. B(F  46,C  42)                  1.0878         1.577715   
     64. B(H  47,C  41)                  1.3789         0.124606   
     65. B(H  49,C  13)                  3.8161         0.000016   
     66. B(H  49,H  27)                  3.7268         0.000004   
     67. B(H  49,C  15)                  3.6405         0.000031   
     68. B(H  49,H  29)                  3.3996         0.000014   
     69. B(C  50,H  49)                  1.0882         0.362457   
     70. B(C  50,H  48)                  1.3789         0.124617   
     71. B(C  52,F  51)                  1.0879         1.577494   
     72. B(C  52,C  50)                  1.5262         0.378828   
     73. B(H  53,C  15)                  3.0915         0.000231   
     74. B(H  53,C   8)                  3.0634         0.000256   
     75. B(H  53,H  29)                  3.0000         0.000062   
     76. B(H  53,O   0)                  2.9552         0.000341   
     77. B(H  53,C  52)                  1.0910         0.358827   
     78. B(H  53,F  51)                  1.7899         0.022909   
     79. B(H  53,H  32)                  3.4132         0.000014   
     80. B(O  54,C  50)                  1.3966         0.546134   
     81. B(O  55,C  52)                  1.4307         0.481822   
     82. B(O  55,H  53)                  2.0658         0.008947   
     83. B(C  56,O  55)                  1.3523         0.642751   
     84. B(C  56,O  54)                  1.3775         0.585798   
     85. B(O  57,C  56)                  1.1824         1.199623   
     86. A(H  32,O   0,C  43)           46.1438         0.124362   
     87. A(C   8,O   0,H  32)          109.3372         0.367738   
     88. A(H  32,O   0,H  53)          110.2977         0.133066   
     89. A(C  43,O   0,H  53)           83.4157         0.095769   
     90. A(C  43,O   0,O  44)           17.0246         0.097142   
     91. A(C   8,O   0,O  44)          153.7700         0.153181   
     92. A(C   8,O   0,C  43)          142.5375         0.131815   
     93. A(C   8,O   0,H  53)           81.3521         0.142354   
     94. A(O  44,O   0,H  53)           79.1647         0.099146   
     95. A(H  32,O   0,O  44)           62.2730         0.142008   
     96. A(C  10,O   1,H  33)          110.2241         0.367760   
     97. A(C   3,C   2,C   8)          121.3373         0.404392   
     98. A(C   7,C   2,C   8)          117.9398         0.428728   
     99. A(C   3,C   2,C   7)          120.7171         0.406924   
    100. A(C   5,C   3,C   9)          117.4734         0.429905   
    101. A(C   2,C   3,C   5)          120.7622         0.406601   
    102. A(C   2,C   3,C   9)          121.7561         0.405807   
    103. A(C  10,C   4,C  11)          121.1856         0.397131   
    104. A(C   5,C   4,C  10)          118.1526         0.430375   
    105. A(C   5,C   4,C  11)          120.6360         0.400117   
    106. A(C   4,C   5,H  20)          118.5043         0.354038   
    107. A(C   3,C   5,C   4)          122.7889         0.432218   
    108. A(C   3,C   5,H  20)          118.6968         0.352911   
    109. A(C  12,C   6,C  13)          121.4899         0.399472   
    110. A(C   7,C   6,C  13)          117.8075         0.433177   
    111. A(C   7,C   6,C  12)          120.7015         0.399631   
    112. A(C   6,C   7,H  21)          119.1160         0.353895   
    113. A(C   2,C   7,C   6)          122.6595         0.432402   
    114. A(C   2,C   7,H  21)          118.2172         0.353164   
    115. A(O   0,C   8,C  15)          117.0676         0.430683   
    116. A(C   2,C   8,C  15)          120.2249         0.430446   
    117. A(O   0,C   8,C   2)          122.6978         0.426257   
    118. A(C   2,C   8,H  53)          118.1997         0.139551   
    119. A(O   0,C   8,H  53)           72.5004         0.139586   
    120. A(C  15,C   8,H  53)           78.0730         0.140214   
    121. A(C   3,C   9,H  22)          119.7875         0.352376   
    122. A(C  14,C   9,H  22)          119.1529         0.355511   
    123. A(C   3,C   9,C  14)          121.0152         0.433101   
    124. A(C   4,C  10,C  14)          120.1513         0.430622   
    125. A(O   1,C  10,C  14)          117.1105         0.430725   
    126. A(O   1,C  10,C   4)          122.7239         0.427200   
    127. A(C   4,C  11,H  24)          107.9488         0.326305   
    128. A(C   4,C  11,C  16)          114.2187         0.371870   
    129. A(H  23,C  11,H  24)          106.4650         0.289226   
    130. A(C  16,C  11,H  24)          108.6815         0.328039   
    131. A(C  16,C  11,H  23)          109.0704         0.327671   
    132. A(C   4,C  11,H  23)          110.1561         0.325941   
    133. A(C   6,C  12,C  17)          113.4104         0.372336   
    134. A(H  25,C  12,H  26)          106.5255         0.289240   
    135. A(C  17,C  12,H  26)          108.9658         0.328456   
    136. A(C   6,C  12,H  26)          108.3618         0.325816   
    137. A(C  17,C  12,H  25)          109.1327         0.328575   
    138. A(C   6,C  12,H  25)          110.2052         0.325934   
    139. A(C  15,C  13,H  49)           72.2152         0.116457   
    140. A(C   6,C  13,C  15)          121.0949         0.434818   
    141. A(C  15,C  13,H  27)          119.1768         0.355182   
    142. A(C   6,C  13,H  27)          119.7283         0.353784   
    143. A(H  27,C  13,H  49)           77.0895         0.110023   
    144. A(C   6,C  13,H  49)          121.4642         0.116313   
    145. A(C  10,C  14,H  28)          118.5423         0.354626   
    146. A(C   9,C  14,H  28)          121.0350         0.355784   
    147. A(C   9,C  14,C  10)          120.4135         0.435687   
    148. A(C  13,C  15,H  49)           86.5037         0.120773   
    149. A(C  13,C  15,H  53)          119.0049         0.139155   
    150. A(C  13,C  15,H  29)          121.1401         0.355561   
    151. A(C   8,C  15,H  29)          118.5924         0.354902   
    152. A(C   8,C  15,C  13)          120.2647         0.435784   
    153. A(H  29,C  15,H  49)           68.6634         0.113362   
    154. A(C   8,C  15,H  49)          114.9180         0.120694   
    155. A(C   8,C  15,H  53)           75.8165         0.139031   
    156. A(H  29,C  15,H  53)           75.0299         0.127457   
    157. A(H  49,C  15,H  53)           41.5561         0.093584   
    158. A(C  11,C  16,C  18)          125.0328         0.419180   
    159. A(C  18,C  16,H  30)          119.2537         0.367555   
    160. A(C  11,C  16,H  30)          115.7132         0.329386   
    161. A(C  12,C  17,C  19)          125.2143         0.420694   
    162. A(C  19,C  17,H  31)          119.2437         0.367994   
    163. A(C  12,C  17,H  31)          115.5412         0.329976   
    164. A(C  16,C  18,H  35)          121.6339         0.367945   
    165. A(C  16,C  18,H  34)          121.5788         0.368601   
    166. A(H  34,C  18,H  35)          116.7794         0.292847   
    167. A(H  36,C  19,H  37)          116.7680         0.292868   
    168. A(C  17,C  19,H  37)          121.5907         0.368577   
    169. A(C  17,C  19,H  36)          121.6404         0.369032   
    170. A(C  13,H  27,H  49)           86.4382         0.101454   
    171. A(H  49,H  29,H  53)           44.3317         0.090828   
    172. A(C  15,H  29,H  49)           94.0844         0.105371   
    173. A(C  15,H  29,H  53)           84.5703         0.111824   
    174. A(O   0,H  32,H  53)           54.2960         0.106179   
    175. A(C  41,O  40,C  43)          110.2480         0.414612   
    176. A(H  39,C  41,O  40)          109.6014         0.343705   
    177. A(C  42,C  41,H  47)          110.4634         0.274648   
    178. A(O  40,C  41,H  47)          109.2429         0.289024   
    179. A(H  39,C  41,H  47)          107.3525         0.247975   
    180. A(O  40,C  41,C  42)          103.8917         0.386440   
    181. A(H  39,C  41,C  42)          116.1456         0.325399   
    182. A(C  41,C  42,O  45)          103.3897         0.378125   
    183. A(H  38,C  42,F  46)          110.4710         0.410284   
    184. A(C  41,C  42,F  46)          111.7338         0.465050   
    185. A(O  45,C  42,F  46)          109.4542         0.482843   
    186. A(H  38,C  42,O  45)          109.2756         0.336018   
    187. A(H  38,C  42,C  41)          112.2516         0.324858   
    188. A(O   0,C  43,O  45)          108.6329         0.132288   
    189. A(O   0,C  43,O  44)           55.3341         0.138856   
    190. A(O   0,C  43,O  40)          108.9456         0.131391   
    191. A(O  44,C  43,O  45)          126.0034         0.486331   
    192. A(O  40,C  43,O  45)          109.5444         0.426837   
    193. A(O  40,C  43,O  44)          124.4457         0.478094   
    194. A(O   0,O  44,C  43)          107.6413         0.163735   
    195. A(C  42,O  45,C  43)          109.9373         0.412209   
    196. A(H  29,H  49,C  50)          121.5474         0.105293   
    197. A(C  13,H  49,H  27)           16.4723         0.090285   
    198. A(C  13,H  49,C  15)           21.2811         0.091509   
    199. A(C  13,H  49,H  29)           34.1628         0.090686   
    200. A(C  13,H  49,C  50)          119.6108         0.109952   
    201. A(C  15,H  49,H  27)           33.7011         0.090487   
    202. A(H  27,H  49,H  29)           40.3344         0.089999   
    203. A(H  27,H  49,C  50)          134.2286         0.101412   
    204. A(C  15,H  49,H  29)           17.2522         0.090951   
    205. A(C  15,H  49,C  50)          113.2763         0.113246   
    206. A(C  52,C  50,O  54)          103.8925         0.386454   
    207. A(H  49,C  50,O  54)          109.5956         0.343705   
    208. A(H  48,C  50,O  54)          109.2430         0.289027   
    209. A(H  49,C  50,C  52)          116.1481         0.325413   
    210. A(H  48,C  50,C  52)          110.4687         0.274662   
    211. A(H  48,C  50,H  49)          107.3494         0.247979   
    212. A(H  53,C  52,O  55)          109.2750         0.336020   
    213. A(F  51,C  52,O  55)          109.4570         0.482827   
    214. A(C  50,C  52,O  55)          103.3945         0.378137   
    215. A(F  51,C  52,H  53)          110.4677         0.410279   
    216. A(C  50,C  52,H  53)          112.2512         0.324875   
    217. A(C  50,C  52,F  51)          111.7310         0.465057   
    218. A(C  15,H  53,H  32)           57.8918         0.092046   
    219. A(C   8,H  53,H  32)           33.8823         0.092118   
    220. A(H  29,H  53,H  32)           65.5391         0.090808   
    221. A(O   0,H  53,H  32)           15.4063         0.092288   
    222. A(H  32,H  53,C  52)          149.9641         0.105073   
    223. A(C   8,H  53,C  15)           26.1105         0.096407   
    224. A(C  15,H  53,H  29)           20.3997         0.093294   
    225. A(O   0,H  53,C  15)           45.6885         0.096812   
    226. A(C  15,H  53,C  52)          142.0165         0.127186   
    227. A(C   8,H  53,H  29)           41.1596         0.093396   
    228. A(O   0,H  53,C   8)           26.1475         0.096997   
    229. A(C   8,H  53,C  52)          151.9501         0.128089   
    230. A(O   0,H  53,H  29)           50.5699         0.093637   
    231. A(H  29,H  53,C  52)          142.4039         0.111663   
    232. A(O   0,H  53,C  52)          165.2505         0.130228   
    233. A(C  50,O  54,C  56)          110.2439         0.414595   
    234. A(C  52,O  55,C  56)          109.9322         0.412209   
    235. A(O  55,C  56,O  57)          126.0018         0.486327   
    236. A(O  54,C  56,O  57)          124.4441         0.478070   
    237. A(O  54,C  56,O  55)          109.5476         0.426824   
    238. D(C   5,C   3,C   2,C   7)    -52.9808         0.013153   
    239. D(C   9,C   3,C   2,C   7)    125.9471         0.013153   
    240. D(C   9,C   3,C   2,C   8)    -54.9479         0.013153   
    241. D(C   5,C   3,C   2,C   8)    126.1242         0.013153   
    242. D(H  20,C   5,C   4,C  10)   -179.4355         0.028754   
    243. D(H  20,C   5,C   3,C   9)    178.8449         0.025428   
    244. D(H  20,C   5,C   4,C  11)     -1.2601         0.028754   
    245. D(C   3,C   5,C   4,C  11)    177.5799         0.028754   
    246. D(H  20,C   5,C   3,C   2)     -2.1826         0.025428   
    247. D(C   4,C   5,C   3,C   9)      0.0070         0.025428   
    248. D(C   3,C   5,C   4,C  10)     -0.5955         0.028754   
    249. D(C   4,C   5,C   3,C   2)    178.9795         0.025428   
    250. D(C   6,C   7,C   2,C   3)   -179.8475         0.025671   
    251. D(C   6,C   7,C   2,C   8)      1.0178         0.025671   
    252. D(C   2,C   7,C   6,C  13)     -0.3620         0.026343   
    253. D(H  21,C   7,C   6,C  13)   -179.3662         0.026343   
    254. D(H  21,C   7,C   6,C  12)      0.2566         0.026343   
    255. D(H  21,C   7,C   2,C   8)   -179.9695         0.025671   
    256. D(C   2,C   7,C   6,C  12)    179.2609         0.026343   
    257. D(H  21,C   7,C   2,C   3)     -0.8348         0.025671   
    258. D(C  15,C   8,C   2,C   3)    179.9114         0.025880   
    259. D(C   2,C   8,O   0,O  44)    -70.3677         0.037786   
    260. D(O   0,C   8,C   2,C   3)     -1.2511         0.025880   
    261. D(C  15,C   8,O   0,H  53)     66.1423         0.037786   
    262. D(C  15,C   8,O   0,O  44)    108.5042         0.037786   
    263. D(C  15,C   8,O   0,H  32)    174.7142         0.037786   
    264. D(O   0,C   8,C   2,C   7)    177.8780         0.025880   
    265. D(C   2,C   8,O   0,C  43)    -45.6321         0.037786   
    266. D(C   2,C   8,O   0,H  53)   -112.7297         0.037786   
    267. D(C  15,C   8,C   2,C   7)     -0.9595         0.025880   
    268. D(H  53,C   8,C   2,C   3)    -87.7395         0.025880   
    269. D(C   2,C   8,O   0,H  32)     -4.1578         0.037786   
    270. D(H  22,C   9,C   3,C   5)    177.9212         0.024842   
    271. D(H  22,C   9,C   3,C   2)     -1.0404         0.024842   
    272. D(C  14,C   9,C   3,C   5)      0.3641         0.024842   
    273. D(C  14,C   9,C   3,C   2)   -178.5975         0.024842   
    274. D(O   1,C  10,C   4,C  11)      1.2456         0.030083   
    275. D(C   4,C  10,O   1,H  33)     19.4833         0.035839   
    276. D(C  14,C  10,C   4,C  11)   -177.3400         0.030083   
    277. D(C  14,C  10,O   1,H  33)   -161.8907         0.035839   
    278. D(C  14,C  10,C   4,C   5)      0.8249         0.030083   
    279. D(O   1,C  10,C   4,C   5)    179.4105         0.030083   
    280. D(H  24,C  11,C   4,C   5)      0.5418         0.013039   
    281. D(H  24,C  11,C   4,C  10)    178.6613         0.013039   
    282. D(H  23,C  11,C   4,C  10)     62.7955         0.013039   
    283. D(H  23,C  11,C   4,C   5)   -115.3241         0.013039   
    284. D(C  16,C  11,C   4,C  10)    -60.3483         0.013039   
    285. D(C  16,C  11,C   4,C   5)    121.5322         0.013039   
    286. D(C  17,C  12,C   6,C   7)     63.5030         0.011395   
    287. D(C  17,C  12,C   6,C  13)   -116.8883         0.011395   
    288. D(H  25,C  12,C   6,C   7)    -59.1751         0.011395   
    289. D(H  25,C  12,C   6,C  13)    120.4336         0.011395   
    290. D(H  26,C  12,C   6,C   7)   -175.3752         0.011395   
    291. D(H  27,C  13,C   6,C   7)    179.7067         0.028487   
    292. D(H  27,C  13,C   6,C  12)      0.0870         0.028487   
    293. D(C  15,C  13,C   6,C   7)     -0.3683         0.028487   
    294. D(H  49,C  13,C   6,C   7)    -87.5534         0.028487   
    295. D(C  15,C  13,C   6,C  12)   -179.9880         0.028487   
    296. D(C   9,C  14,C  10,O   1)   -179.1430         0.033179   
    297. D(H  28,C  14,C   9,H  22)      1.1818         0.030163   
    298. D(H  28,C  14,C   9,C   3)    178.7542         0.030163   
    299. D(C  10,C  14,C   9,H  22)   -177.7034         0.030163   
    300. D(C  10,C  14,C   9,C   3)     -0.1310         0.030163   
    301. D(H  28,C  14,C  10,C   4)   -179.3924         0.033179   
    302. D(H  28,C  14,C  10,O   1)      1.9444         0.033179   
    303. D(C   9,C  14,C  10,C   4)     -0.4797         0.033179   
    304. D(H  53,C  15,C  13,C   6)    -89.5413         0.034317   
    305. D(H  29,C  15,C  13,H  49)    -62.4315         0.034317   
    306. D(C   8,C  15,C  13,H  49)    116.9403         0.034317   
    307. D(H  29,C  15,C  13,H  27)      0.9631         0.034317   
    308. D(C   8,C  15,C  13,H  27)   -179.6651         0.034317   
    309. D(C   8,C  15,C  13,C   6)      0.4095         0.034317   
    310. D(H  53,C  15,C   8,O   0)    -63.0588         0.033519   
    311. D(H  29,C  15,C   8,H  53)     63.8200         0.033519   
    312. D(H  29,C  15,C   8,C   2)    179.6626         0.033519   
    313. D(H  29,C  15,C  13,C   6)   -178.9623         0.034317   
    314. D(H  29,C  15,C   8,O   0)      0.7612         0.033519   
    315. D(C  13,C  15,C   8,H  53)   -115.5676         0.033519   
    316. D(C  13,C  15,C   8,C   2)      0.2750         0.033519   
    317. D(C  13,C  15,C   8,O   0)   -178.6264         0.033519   
    318. D(H  30,C  16,C  11,H  24)     66.9389         0.013075   
    319. D(H  30,C  16,C  11,H  23)   -177.3740         0.013075   
    320. D(H  30,C  16,C  11,C   4)    -53.6444         0.013075   
    321. D(C  18,C  16,C  11,H  24)   -113.2472         0.013075   
    322. D(C  18,C  16,C  11,C   4)    126.1695         0.013075   
    323. D(C  18,C  16,C  11,H  23)      2.4399         0.013075   
    324. D(H  31,C  17,C  12,H  25)   -179.7943         0.012513   
    325. D(H  31,C  17,C  12,C   6)     56.9368         0.012513   
    326. D(C  19,C  17,C  12,H  25)      0.5361         0.012513   
    327. D(C  19,C  17,C  12,C   6)   -122.7329         0.012513   
    328. D(C  19,C  17,C  12,H  26)    116.4855         0.012513   
    329. D(H  35,C  18,C  16,H  30)   -179.6270         0.043592   
    330. D(H  35,C  18,C  16,C  11)      0.5653         0.043592   
    331. D(H  34,C  18,C  16,H  30)     -0.6802         0.043592   
    332. D(H  34,C  18,C  16,C  11)    179.5120         0.043592   
    333. D(H  37,C  19,C  17,H  31)   -179.7245         0.044385   
    334. D(H  37,C  19,C  17,C  12)     -0.0661         0.044385   
    335. D(H  36,C  19,C  17,H  31)      0.6338         0.044385   
    336. D(H  36,C  19,C  17,C  12)   -179.7078         0.044385   
    337. D(H  49,H  27,C  13,C  15)    -60.8637         0.127991   
    338. D(H  49,H  27,C  13,C   6)    119.0628         0.127991   
    339. D(H  53,H  29,C  15,H  49)     43.3523         0.152861   
    340. D(H  53,H  29,C  15,C  13)    115.1421         0.152861   
    341. D(H  53,H  29,C  15,C   8)    -64.2400         0.152861   
    342. D(H  49,H  29,C  15,C  13)     71.7898         0.152861   
    343. D(H  49,H  29,C  15,C   8)   -107.5923         0.152861   
    344. D(H  49,H  29,C  15,H  53)    -43.3523         0.152861   
    345. D(H  53,H  32,O   0,C   8)    -87.7015         0.507237   
    346. D(H  53,H  32,O   0,O  44)     65.1125         0.507237   
    347. D(H  53,H  32,O   0,C  43)     58.3363         0.507237   
    348. D(H  47,C  41,O  40,C  43)   -102.2010         0.027722   
    349. D(C  42,C  41,O  40,C  43)     15.6898         0.027722   
    350. D(H  39,C  41,O  40,C  43)    140.4350         0.027722   
    351. D(O  45,C  42,C  41,H  47)    100.1713         0.011437   
    352. D(O  45,C  42,C  41,O  40)    -16.8718         0.011437   
    353. D(O  45,C  42,C  41,H  39)   -137.2947         0.011437   
    354. D(H  38,C  42,C  41,H  47)   -142.1810         0.011437   
    355. D(H  38,C  42,C  41,H  39)    -19.6470         0.011437   
    356. D(H  38,C  42,C  41,O  40)    100.7759         0.011437   
    357. D(O  44,C  43,O   0,H  53)    -74.3734         0.001500   
    358. D(O  44,C  43,O   0,H  32)    159.1010         0.001500   
    359. D(O  44,C  43,O   0,C   8)   -140.8279         0.001500   
    360. D(O  40,C  43,O   0,O  44)   -119.3212         0.001500   
    361. D(O  40,C  43,O   0,H  53)    166.3054         0.001500   
    362. D(O  40,C  43,O   0,H  32)     39.7797         0.001500   
    363. D(O  45,C  43,O   0,C   8)    -19.4242         0.001500   
    364. D(O  40,C  43,O   0,C   8)     99.8509         0.001500   
    365. D(O   0,C  43,O  40,C  41)   -127.0632         0.034350   
    366. D(O  45,C  43,O  40,C  41)     -8.3574         0.034350   
    367. D(O  44,C  43,O  40,C  41)    172.5266         0.034350   
    368. D(O   0,O  44,C  43,O  45)    -88.7211         0.163291   
    369. D(O   0,O  44,C  43,O  40)     90.2491         0.163291   
    370. D(C  43,O  44,O   0,H  53)    103.0810         0.001500   
    371. D(C  43,O  44,O   0,H  32)    -16.8935         0.001500   
    372. D(C  43,O  44,O   0,C   8)     60.3744         0.001500   
    373. D(C  42,O  45,C  43,O   0)    115.3081         0.039377   
    374. D(C  42,O  45,C  43,O  44)    175.5076         0.039377   
    375. D(C  42,O  45,C  43,O  40)     -3.5913         0.039377   
    376. D(C  43,O  45,C  42,F  46)    131.9205         0.019863   
    377. D(C  43,O  45,C  42,C  41)     12.7263         0.019863   
    378. D(C  43,O  45,C  42,H  38)   -106.9843         0.019863   
    379. D(C  13,H  49,H  29,C  15)    -31.7674         0.001500   
    380. D(H  27,H  49,H  29,H  53)   -135.1545         0.001500   
    381. D(H  27,H  49,H  29,C  15)    -57.2091         0.001500   
    382. D(C  15,H  49,H  29,H  53)    -77.9454         0.001500   
    383. D(C  50,H  49,H  29,H  53)    -12.3675         0.001500   
    384. D(C  50,H  49,H  29,C  15)     65.5779         0.001500   
    385. D(H  29,H  49,H  27,C  13)     58.2950         0.001500   
    386. D(C  50,H  49,H  27,C  13)    -30.6545         0.001500   
    387. D(H  27,H  49,C  15,C   8)   -146.0565         0.001500   
    388. D(H  29,H  49,C  15,H  53)     91.2941         0.001500   
    389. D(H  29,H  49,C  15,C  13)   -125.4566         0.001500   
    390. D(H  29,H  49,C  15,C   8)    112.6474         0.001500   
    391. D(C  50,H  49,C  15,H  53)    -31.0655         0.001500   
    392. D(C  50,H  49,C  15,H  29)   -122.3596         0.001500   
    393. D(C  50,H  49,C  15,C  13)    112.1838         0.001500   
    394. D(C  50,H  49,C  15,C   8)     -9.7122         0.001500   
    395. D(C  15,H  49,H  27,C  13)     31.5938         0.001500   
    396. D(C  15,H  49,C  13,C   6)    116.0769         0.001500   
    397. D(H  29,H  49,C  13,H  27)   -101.3020         0.001500   
    398. D(H  29,H  49,C  13,C  15)     25.4806         0.001500   
    399. D(H  29,H  49,C  13,C   6)    141.5575         0.001500   
    400. D(C  50,H  49,C  13,H  27)    155.1511         0.001500   
    401. D(C  50,H  49,C  13,C  15)    -78.0664         0.001500   
    402. D(C  50,H  49,C  13,C   6)     38.0106         0.001500   
    403. D(C  52,C  50,H  49,H  27)     70.1899         0.155114   
    404. D(C  52,C  50,H  49,C  15)     37.8771         0.155114   
    405. D(C  52,C  50,H  49,H  29)     20.7814         0.155114   
    406. D(H  48,C  50,H  49,C  13)   -175.2220         0.155114   
    407. D(H  48,C  50,H  49,H  27)   -165.6499         0.155114   
    408. D(H  48,C  50,H  49,C  15)    162.0372         0.155114   
    409. D(H  48,C  50,H  49,H  29)    144.9415         0.155114   
    410. D(H  53,C  52,C  50,O  54)    100.7760         0.011442   
    411. D(H  53,C  52,C  50,H  49)    -19.6418         0.011442   
    412. D(H  53,C  52,C  50,H  48)   -142.1779         0.011442   
    413. D(F  51,C  52,C  50,O  54)   -134.4884         0.011442   
    414. D(F  51,C  52,C  50,H  49)    105.0939         0.011442   
    415. D(F  51,C  52,C  50,H  48)    -17.4422         0.011442   
    416. D(C  15,H  53,C  52,C  50)    -24.2126         0.178050   
    417. D(C   8,H  53,C  52,O  55)     44.2416         0.178050   
    418. D(C   8,H  53,C  52,C  50)    -69.8523         0.178050   
    419. D(H  29,H  53,C  52,O  55)    123.4703         0.178050   
    420. D(H  29,H  53,C  52,F  51)   -116.0533         0.178050   
    421. D(H  29,H  53,C  52,C  50)      9.3764         0.178050   
    422. D(O   0,H  53,C  52,O  55)    -24.0894         0.178050   
    423. D(O   0,H  53,C  52,F  51)     96.3871         0.178050   
    424. D(O   0,H  53,C  52,C  50)   -138.1833         0.178050   
    425. D(C   8,H  53,H  32,O   0)     48.9254         0.001500   
    426. D(H  29,H  53,H  32,O   0)     12.6547         0.001500   
    427. D(C  52,H  53,H  32,O   0)    174.8792         0.001500   
    428. D(H  32,H  53,H  29,C  15)     63.1268         0.001500   
    429. D(C  15,H  53,H  29,H  49)    101.5181         0.001500   
    430. D(C   8,H  53,H  29,H  49)    134.5713         0.001500   
    431. D(O   0,H  53,H  29,H  49)    168.9662         0.001500   
    432. D(O   0,H  53,H  29,C  15)     67.4481         0.001500   
    433. D(C  52,H  53,H  29,H  49)     -0.8497         0.001500   
    434. D(C  52,H  53,H  29,C  15)   -102.3678         0.001500   
    435. D(H  29,H  53,C  15,H  49)    -74.5657         0.001500   
    436. D(H  29,H  53,C  15,C  13)   -117.6339         0.001500   
    437. D(H  29,H  53,C  15,C   8)    125.3480         0.001500   
    438. D(O   0,H  53,C  15,H  49)   -169.0756         0.001500   
    439. D(O   0,H  53,C  15,H  29)    -94.5099         0.001500   
    440. D(O   0,H  53,C  15,C  13)    147.8563         0.001500   
    441. D(O   0,H  53,C  15,C   8)     30.8382         0.001500   
    442. D(C  52,H  53,C  15,H  49)     29.8969         0.001500   
    443. D(C  52,H  53,C  15,H  29)    104.4626         0.001500   
    444. D(C  52,H  53,C  15,C  13)    -13.1713         0.001500   
    445. D(C  52,H  53,C  15,C   8)   -130.1894         0.001500   
    446. D(C  15,H  53,C   8,C   2)   -118.0693         0.001500   
    447. D(C  15,H  53,C   8,O   0)    123.6590         0.001500   
    448. D(H  29,H  53,C   8,C  15)    -25.5932         0.001500   
    449. D(H  29,H  53,C   8,C   2)   -143.6625         0.001500   
    450. D(H  29,H  53,C   8,O   0)     98.0658         0.001500   
    451. D(C   8,H  53,H  29,C  15)     33.0533         0.001500   
    452. D(O   0,H  53,C   8,C  15)   -123.6590         0.001500   
    453. D(O   0,H  53,C   8,C   2)    118.2717         0.001500   
    454. D(C  52,H  53,C   8,C  15)     88.8137         0.001500   
    455. D(H  32,H  53,H  29,H  49)    164.6449         0.001500   
    456. D(C  52,H  53,C   8,C   2)    -29.2556         0.001500   
    457. D(C  52,H  53,C   8,O   0)   -147.5273         0.001500   
    458. D(C   8,H  53,O   0,C  43)   -145.6661         0.001500   
    459. D(C  15,H  53,H  32,O   0)     34.1898         0.001500   
    460. D(C   8,H  53,O   0,O  44)   -162.3493         0.001500   
    461. D(C   8,H  53,O   0,H  32)   -107.5091         0.001500   
    462. D(H  29,H  53,O   0,C  43)    156.8046         0.001500   
    463. D(H  29,H  53,O   0,O  44)    140.1214         0.001500   
    464. D(H  29,H  53,O   0,H  32)   -165.0384         0.001500   
    465. D(H  29,H  53,O   0,C   8)    -57.5293         0.001500   
    466. D(C  52,H  53,O   0,C  43)    -48.2638         0.001500   
    467. D(C   8,H  53,C  52,F  51)    164.7180         0.178050   
    468. D(C  52,H  53,O   0,O  44)    -64.9469         0.001500   
    469. D(C  52,H  53,O   0,H  32)    -10.1067         0.001500   
    470. D(C  52,H  53,O   0,C   8)     97.4023         0.001500   
    471. D(C  56,O  54,C  50,C  52)     15.6905         0.023755   
    472. D(C  56,O  54,C  50,H  49)    140.4361         0.023755   
    473. D(C  56,O  54,C  50,H  48)   -102.2070         0.023755   
    474. D(C  56,O  55,C  52,H  53)   -106.9856         0.019861   
    475. D(C  56,O  55,C  52,F  51)    131.9218         0.019861   
    476. D(C  56,O  55,C  52,C  50)     12.7269         0.019861   
    477. D(O  57,C  56,O  55,C  52)    175.5135         0.033650   
    478. D(O  54,C  56,O  55,C  52)     -3.5907         0.033650   
    479. D(O  57,C  56,O  54,C  50)    172.5209         0.024987   
    480. D(O  55,C  56,O  54,C  50)     -8.3579         0.024987   
    -----------------------------------------------------------------

Number of atoms                         .... 58
Number of degrees of freedom            .... 480


         *************************************************************
         *                GEOMETRY OPTIMIZATION CYCLE   1            *
         *************************************************************
---------------------------------
CARTESIAN COORDINATES (ANGSTROEM)
---------------------------------
  O      1.437814    1.319566    2.484684
  O     -3.623478   -2.417248    2.171130
  C      1.231651   -0.045244    0.481753
  C     -0.050130   -0.651017    0.927225
  C     -2.402476   -1.170184    0.480549
  C     -1.186196   -0.598894    0.114373
  C      2.986713    0.161723   -1.212158
  C      1.786408   -0.379016   -0.755791
  C      1.913645    0.891701    1.278398
  C     -0.165280   -1.311549    2.157246
  C     -2.477191   -1.835100    1.715273
  C     -3.618823   -1.037631   -0.414522
  C      3.557631   -0.245104   -2.557786
  C      3.642119    1.076648   -0.389678
  C     -1.361319   -1.896336    2.545002
  C      3.112649    1.442719    0.839609
  C     -4.204465   -2.352828   -0.860661
  C      2.682550    0.139176   -3.719013
  C     -5.475830   -2.712934   -0.709514
  C      2.194143   -0.703484   -4.621432
  H     -1.124608   -0.076153   -0.833487
  H      1.264032   -1.100600   -1.373921
  H      0.700818   -1.403726    2.801945
  H     -4.396123   -0.452025    0.089007
  H     -3.325103   -0.466490   -1.300044
  H      3.733308   -1.325105   -2.582971
  H      4.535971    0.232460   -2.676059
  H      4.580769    1.513079   -0.711965
  H     -1.445131   -2.423986    3.486362
  H      3.612507    2.165592    1.471509
  H     -3.510374   -3.040985   -1.336643
  H      2.443957    1.197332   -3.796303
  H      0.566077    0.931718    2.640779
  H     -4.234882   -2.572655    1.436723
  H     -5.839075   -3.671079   -1.058956
  H     -6.202831   -2.054038   -0.245236
  H      1.571716   -0.362051   -5.439301
  H      2.404196   -1.767045   -4.578235
  H     -3.781912    1.504669    2.430156
  H     -3.886793    0.288754    4.546205
  O     -2.306565    1.510040    4.953486
  C     -3.649959    1.349151    4.607128
  C     -3.792635    2.145575    3.312978
  C     -1.753587    2.554506    4.245827
  O     -0.670479    2.990169    4.433356
  O     -2.629135    2.978158    3.306339
  F     -4.684167    2.768906    3.319793
  H     -4.442474    1.891346    5.596697
  H      1.832952    6.504942   -0.790680
  H      2.845499    4.806139   -0.527666
  C      1.817045    5.131315   -0.671801
  F      0.550052    5.524982    1.055050
  C      0.818862    4.699813    0.399049
  H      1.179417    3.850980    0.981875
  O      1.309777    4.573405   -1.847381
  O     -0.327380    4.300046   -0.358127
  C     -0.000067    4.187640   -1.665381
  O     -0.710250    3.803328   -2.529139

----------------------------
CARTESIAN COORDINATES (A.U.)
----------------------------
  NO LB      ZA    FRAG     MASS         X           Y           Z
   0 O     8.0000    0    15.999    2.717075    2.493619    4.695373
   1 O     8.0000    0    15.999   -6.847382   -4.567936    4.102840
   2 C     6.0000    0    12.011    2.327483   -0.085499    0.910381
   3 C     6.0000    0    12.011   -0.094731   -1.230245    1.752200
   4 C     6.0000    0    12.011   -4.540022   -2.211328    0.908105
   5 C     6.0000    0    12.011   -2.241585   -1.131745    0.216134
   6 C     6.0000    0    12.011    5.644071    0.305613   -2.290647
   7 C     6.0000    0    12.011    3.375823   -0.716237   -1.428238
   8 C     6.0000    0    12.011    3.616264    1.685071    2.415823
   9 C     6.0000    0    12.011   -0.312334   -2.478468    4.076604
  10 C     6.0000    0    12.011   -4.681212   -3.467836    3.241396
  11 C     6.0000    0    12.011   -6.838585   -1.960839   -0.783334
  12 C     6.0000    0    12.011    6.722948   -0.463179   -4.833515
  13 C     6.0000    0    12.011    6.882607    2.034569   -0.736384
  14 C     6.0000    0    12.011   -2.572520   -3.583556    4.809356
  15 C     6.0000    0    12.011    5.882053    2.726345    1.586632
  16 C     6.0000    0    12.011   -7.945288   -4.446201   -1.626414
  17 C     6.0000    0    12.011    5.069285    0.263004   -7.027917
  18 C     6.0000    0    12.011  -10.347819   -5.126702   -1.340788
  19 C     6.0000    0    12.011    4.146330   -1.329392   -8.733241
  20 H     1.0000    0     1.008   -2.125202   -0.143908   -1.575063
  21 H     1.0000    0     1.008    2.388675   -2.079833   -2.596335
  22 H     1.0000    0     1.008    1.324354   -2.652657    5.294908
  23 H     1.0000    0     1.008   -8.307468   -0.854204    0.168199
  24 H     1.0000    0     1.008   -6.283535   -0.881539   -2.456726
  25 H     1.0000    0     1.008    7.054931   -2.504085   -4.881108
  26 H     1.0000    0     1.008    8.571742    0.439286   -5.057019
  27 H     1.0000    0     1.008    8.656399    2.859304   -1.345419
  28 H     1.0000    0     1.008   -2.730902   -4.580669    6.588269
  29 H     1.0000    0     1.008    6.826649    4.092376    2.780749
  30 H     1.0000    0     1.008   -6.633646   -5.746630   -2.525890
  31 H     1.0000    0     1.008    4.618409    2.262630   -7.173973
  32 H     1.0000    0     1.008    1.069731    1.760692    4.990349
  33 H     1.0000    0     1.008   -8.002767   -4.861613    2.715012
  34 H     1.0000    0     1.008  -11.034252   -6.937333   -2.001137
  35 H     1.0000    0     1.008  -11.721651   -3.881570   -0.463429
  36 H     1.0000    0     1.008    2.970112   -0.684178  -10.278789
  37 H     1.0000    0     1.008    4.543272   -3.339232   -8.651611
  38 H     1.0000    0     1.008   -7.146779    2.843412    4.592330
  39 H     1.0000    0     1.008   -7.344974    0.545666    8.591082
  40 O     8.0000    0    15.999   -4.358776    2.853562    9.360732
  41 C     6.0000    0    12.011   -6.897422    2.549525    8.706211
  42 C     6.0000    0    12.011   -7.167041    4.054549    6.260621
  43 C     6.0000    0    12.011   -3.313799    4.827317    8.023451
  44 O     8.0000    0    15.999   -1.267023    5.650600    8.377828
  45 O     8.0000    0    15.999   -4.968345    5.627902    6.248076
  46 F     9.0000    0    18.998   -8.851792    5.232474    6.273500
  47 H     1.0000    0     1.008   -8.395059    3.574125   10.576224
  48 H     1.0000    0     1.008    3.463777   12.292559   -1.494169
  49 H     1.0000    0     1.008    5.377213    9.082287   -0.997144
  50 C     6.0000    0    12.011    3.433718    9.696780   -1.269519
  51 F     9.0000    0    18.998    1.039449   10.440703    1.993756
  52 C     6.0000    0    12.011    1.547425    8.881360    0.754094
  53 H     1.0000    0     1.008    2.228774    7.277298    1.855475
  54 O     8.0000    0    15.999    2.475119    8.642483   -3.491044
  55 O     8.0000    0    15.999   -0.618659    8.125910   -0.676761
  56 C     6.0000    0    12.011   -0.000126    7.913493   -3.147113
  57 O     8.0000    0    15.999   -1.342177    7.187249   -4.779380

--------------------------------
INTERNAL COORDINATES (ANGSTROEM)
--------------------------------
 O      0   0   0     0.000000000000     0.00000000     0.00000000
 O      1   0   0     6.299109015469     0.00000000     0.00000000
 C      1   2   0     2.432477184017    63.77259403     0.00000000
 C      3   1   2     1.486057732596    93.15218861     0.58783938
 C      2   1   3     2.429830812457    47.65529728   324.53868438
 C      5   2   1     1.392765127116   146.33297007    25.01054443
 C      3   1   2     2.447940990232   117.48890922   179.81581447
 C      7   3   1     1.393342339766    28.70754247   181.76941718
 C      1   2   3     1.365506986478    92.87369626   359.19242297
 C      4   3   1     1.400897592788   121.75614782   304.46020474
 C      2   1   3     1.364066290292    24.25140510   355.73556696
 C      5   2   1     1.515988967855    93.00848149   207.01517430
 C      7   3   1     1.517289739227   149.40515424   180.52066115
 C      7   3   1     1.393957432954    89.10043641     1.44921383
 C     10   4   3     1.386664822369   121.01521184   181.40245049
 C     14   7   3     1.387621463866   121.09489359   359.45779932
 C     12   5   2     1.507235868409   114.21874749   300.24080384
 C     13   7   3     1.503956518596   113.41037361    64.20053130
 C     17  12   5     1.329996141080   125.03280575   126.16949595
 C     18  13   7     1.327771338650   125.21433088   237.26710827
 H      6   5   2     1.084200528166   118.50434585   181.06672281
 H      8   7   3     1.084271814958   119.11598599   180.99577981
 H     10   4   3     1.083632300487   119.78749096   358.95962538
 H     12   5   2     1.095751179391   110.15606776    63.38451788
 H     12   5   2     1.093901947679   107.94876114   179.25040547
 H     13   7   3     1.094485766716   110.20517349   301.52244796
 H     13   7   3     1.095082216709   108.36178346   185.32231912
 H     14   7   3     1.084160995490   119.72830541   179.53278114
 H     15  10   4     1.082403607263   121.03503233   178.75423043
 H     16  14   7     1.082451347417   121.14006662   181.03770271
 H     17  12   5     1.087143487990   115.71324800   306.35562402
 H     18  13   7     1.087472218739   115.54120908    56.93676244
 H      1   2   3     0.966807294162    17.36414623   161.06656350
 H      2   1   3     0.968152591889   129.82187571   314.76640006
 H     19  17  12     1.082634704119   121.57877540   179.51202468
 H     19  17  12     1.085462116120   121.63393016     0.56525635
 H     20  18  13     1.083006032437   121.64038358   180.29223249
 H     20  18  13     1.084965599182   121.59069546   359.93385622
 H     24  12   5     3.112376397828   122.79656071    21.51578440
 H     39  24  12     2.442766722454   109.28048224   271.18055235
 O     40  39  24     2.038268115380    80.88348542   141.78995986
 C     40  39  24     1.088229323337    63.52044534   180.13752746
 C     39  24  12     1.090985265691   167.43927089   206.15963897
 C     41  40  39     1.377489056193   131.52111752     6.39998091
 O     44  41  40     1.182408516551   124.44566151   197.85997467
 O     44  41  40     1.352295381993   109.54442001    16.97595622
 F     43  39  46     1.087849589874   110.47096793   120.47532700
 H     42  40  39     1.378877180821   107.35253479   133.08624529
 H     30  16  14     5.207136830680    98.34248274    82.56044227
 H     49  30  16     1.995083705046    19.89636198   291.03919475
 C     50  49  30     1.088223878671    41.27564970    69.90190418
 F     51  50  49     2.177672845030   119.92344974   266.96888784
 C     52  51  50     1.087887719401    40.61946549   270.16846718
 H     53  52  51     1.090964316601   110.46772221   125.72334963
 O     51  50  49     1.396629213481   109.59562706   118.53714159
 O     53  52  51     1.430734042447   109.45703190   246.09078299
 C     56  53  52     1.352287761575   109.93221684   131.92178035
 O     57  56  53     1.182427105510   126.00178479   175.51350538

---------------------------
INTERNAL COORDINATES (A.U.)
---------------------------
 O      0   0   0     0.000000000000     0.00000000     0.00000000
 O      1   0   0    11.903590926951     0.00000000     0.00000000
 C      1   2   0     4.596715704804    63.77259403     0.00000000
 C      3   1   2     2.808242133803    93.15218861     0.58783938
 C      2   1   3     4.591714787307    47.65529728   324.53868438
 C      5   2   1     2.631944659126   146.33297007    25.01054443
 C      3   1   2     4.625938063539   117.48890922   179.81581447
 C      7   3   1     2.633035432955    28.70754247   181.76941718
 C      1   2   3     2.580434238400    92.87369626   359.19242297
 C      4   3   1     2.647312792039   121.75614782   304.46020474
 C      2   1   3     2.577711717166    24.25140510   355.73556696
 C      5   2   1     2.864803971292    93.00848149   207.01517430
 C      7   3   1     2.867262072948   149.40515424   180.52066115
 C      7   3   1     2.634197790626    89.10043641     1.44921383
 C     10   4   3     2.620416753820   121.01521184   181.40245049
 C     14   7   3     2.622224544257   121.09489359   359.45779932
 C     12   5   2     2.848263010516   114.21874749   300.24080384
 C     13   7   3     2.842065937473   113.41037361    64.20053130
 C     17  12   5     2.513328465814   125.03280575   126.16949595
 C     18  13   7     2.509124198518   125.21433088   237.26710827
 H      6   5   2     2.048842072487   118.50434585   181.06672281
 H      8   7   3     2.048976785000   119.11598599   180.99577981
 H     10   4   3     2.047768277792   119.78749096   358.95962538
 H     12   5   2     2.070669639971   110.15606776    63.38451788
 H     12   5   2     2.067175098476   107.94876114   179.25040547
 H     13   7   3     2.068278356568   110.20517349   301.52244796
 H     13   7   3     2.069405483707   108.36178346   185.32231912
 H     14   7   3     2.048767366556   119.72830541   179.53278114
 H     15  10   4     2.045446384095   121.03503233   178.75423043
 H     16  14   7     2.045536599912   121.14006662   181.03770271
 H     17  12   5     2.054403460577   115.71324800   306.35562402
 H     18  13   7     2.055024671665   115.54120908    56.93676244
 H      1   2   3     1.827001010243    17.36414623   161.06656350
 H      2   1   3     1.829543254516   129.82187571   314.76640006
 H     19  17  12     2.045883093864   121.57877540   179.51202468
 H     19  17  12     2.051226128213   121.63393016     0.56525635
 H     20  18  13     2.046584802691   121.64038358   180.29223249
 H     20  18  13     2.050287847180   121.59069546   359.93385622
 H     24  12   5     5.881539017575   122.79656071    21.51578440
 H     39  24  12     4.616160114494   109.28048224   271.18055235
 O     40  39  24     3.851768525573    80.88348542   141.78995986
 C     40  39  24     2.056455392009    63.52044534   180.13752746
 C     39  24  12     2.061663368300   167.43927089   206.15963897
 C     41  40  39     2.603077068679   131.52111752     6.39998091
 O     44  41  40     2.234428274697   124.44566151   197.85997467
 O     44  41  40     2.555467924133   109.54442001    16.97595622
 F     43  39  46     2.055737799760   110.47096793   120.47532700
 H     42  40  39     2.605700244066   107.35253479   133.08624529
 H     30  16  14     9.840062551841    98.34248274    82.56044227
 H     49  30  16     3.770161816786    19.89636198   291.03919475
 C     50  49  30     2.056445103081    41.27564970    69.90190418
 F     51  50  49     4.115205286384   119.92344974   266.96888784
 C     52  51  50     2.055809854123    40.61946549   270.16846718
 H     53  52  51     2.061623780256   110.46772221   125.72334963
 O     51  50  49     2.639246724114   109.59562706   118.53714159
 O     53  52  51     2.703695510702   109.45703190   246.09078299
 C     56  53  52     2.555453523631   109.93221684   131.92178035
 O     57  56  53     2.234463402739   126.00178479   175.51350538

---------------------
BASIS SET INFORMATION
---------------------
There are 4 groups of distinct atoms

 Group   1 Type O   : 11s6p2d1f contracted to 5s3p2d1f pattern {62111/411/11/1}
 Group   2 Type C   : 11s6p2d1f contracted to 5s3p2d1f pattern {62111/411/11/1}
 Group   3 Type H   : 5s1p contracted to 3s1p pattern {311/1}
 Group   4 Type F   : 11s6p2d1f contracted to 5s3p2d1f pattern {62111/411/11/1}

Atom   0O    basis set group =>   1
Atom   1O    basis set group =>   1
Atom   2C    basis set group =>   2
Atom   3C    basis set group =>   2
Atom   4C    basis set group =>   2
Atom   5C    basis set group =>   2
Atom   6C    basis set group =>   2
Atom   7C    basis set group =>   2
Atom   8C    basis set group =>   2
Atom   9C    basis set group =>   2
Atom  10C    basis set group =>   2
Atom  11C    basis set group =>   2
Atom  12C    basis set group =>   2
Atom  13C    basis set group =>   2
Atom  14C    basis set group =>   2
Atom  15C    basis set group =>   2
Atom  16C    basis set group =>   2
Atom  17C    basis set group =>   2
Atom  18C    basis set group =>   2
Atom  19C    basis set group =>   2
Atom  20H    basis set group =>   3
Atom  21H    basis set group =>   3
Atom  22H    basis set group =>   3
Atom  23H    basis set group =>   3
Atom  24H    basis set group =>   3
Atom  25H    basis set group =>   3
Atom  26H    basis set group =>   3
Atom  27H    basis set group =>   3
Atom  28H    basis set group =>   3
Atom  29H    basis set group =>   3
Atom  30H    basis set group =>   3
Atom  31H    basis set group =>   3
Atom  32H    basis set group =>   3
Atom  33H    basis set group =>   3
Atom  34H    basis set group =>   3
Atom  35H    basis set group =>   3
Atom  36H    basis set group =>   3
Atom  37H    basis set group =>   3
Atom  38H    basis set group =>   3
Atom  39H    basis set group =>   3
Atom  40O    basis set group =>   1
Atom  41C    basis set group =>   2
Atom  42C    basis set group =>   2
Atom  43C    basis set group =>   2
Atom  44O    basis set group =>   1
Atom  45O    basis set group =>   1
Atom  46F    basis set group =>   4
Atom  47H    basis set group =>   3
Atom  48H    basis set group =>   3
Atom  49H    basis set group =>   3
Atom  50C    basis set group =>   2
Atom  51F    basis set group =>   4
Atom  52C    basis set group =>   2
Atom  53H    basis set group =>   3
Atom  54O    basis set group =>   1
Atom  55O    basis set group =>   1
Atom  56C    basis set group =>   2
Atom  57O    basis set group =>   1
---------------------------------
AUXILIARY/J BASIS SET INFORMATION
---------------------------------
There are 4 groups of distinct atoms

 Group   1 Type O   : 12s5p4d2f1g contracted to 6s4p3d1f1g pattern {711111/2111/211/2/1}
 Group   2 Type C   : 12s5p4d2f1g contracted to 6s4p3d1f1g pattern {711111/2111/211/2/1}
 Group   3 Type H   : 5s2p1d contracted to 3s1p1d pattern {311/2/1}
 Group   4 Type F   : 12s5p4d2f1g contracted to 6s4p3d1f1g pattern {711111/2111/211/2/1}

Atom   0O    basis set group =>   1
Atom   1O    basis set group =>   1
Atom   2C    basis set group =>   2
Atom   3C    basis set group =>   2
Atom   4C    basis set group =>   2
Atom   5C    basis set group =>   2
Atom   6C    basis set group =>   2
Atom   7C    basis set group =>   2
Atom   8C    basis set group =>   2
Atom   9C    basis set group =>   2
Atom  10C    basis set group =>   2
Atom  11C    basis set group =>   2
Atom  12C    basis set group =>   2
Atom  13C    basis set group =>   2
Atom  14C    basis set group =>   2
Atom  15C    basis set group =>   2
Atom  16C    basis set group =>   2
Atom  17C    basis set group =>   2
Atom  18C    basis set group =>   2
Atom  19C    basis set group =>   2
Atom  20H    basis set group =>   3
Atom  21H    basis set group =>   3
Atom  22H    basis set group =>   3
Atom  23H    basis set group =>   3
Atom  24H    basis set group =>   3
Atom  25H    basis set group =>   3
Atom  26H    basis set group =>   3
Atom  27H    basis set group =>   3
Atom  28H    basis set group =>   3
Atom  29H    basis set group =>   3
Atom  30H    basis set group =>   3
Atom  31H    basis set group =>   3
Atom  32H    basis set group =>   3
Atom  33H    basis set group =>   3
Atom  34H    basis set group =>   3
Atom  35H    basis set group =>   3
Atom  36H    basis set group =>   3
Atom  37H    basis set group =>   3
Atom  38H    basis set group =>   3
Atom  39H    basis set group =>   3
Atom  40O    basis set group =>   1
Atom  41C    basis set group =>   2
Atom  42C    basis set group =>   2
Atom  43C    basis set group =>   2
Atom  44O    basis set group =>   1
Atom  45O    basis set group =>   1
Atom  46F    basis set group =>   4
Atom  47H    basis set group =>   3
Atom  48H    basis set group =>   3
Atom  49H    basis set group =>   3
Atom  50C    basis set group =>   2
Atom  51F    basis set group =>   4
Atom  52C    basis set group =>   2
Atom  53H    basis set group =>   3
Atom  54O    basis set group =>   1
Atom  55O    basis set group =>   1
Atom  56C    basis set group =>   2
Atom  57O    basis set group =>   1


           ************************************************************
           *        Program running with 25 parallel MPI-processes    *
           *              working on a common directory               *
           ************************************************************
------------------------------------------------------------------------------
                             ORCA STARTUP CALCULATIONS
                           -- RI-GTO INTEGRALS CHOSEN --
------------------------------------------------------------------------------
------------------------------------------------------------------------------
                   ___                                                        
                  /   \      - P O W E R E D   B Y -                         
                 /     \                                                     
                 |  |  |   _    _      __       _____    __    __             
                 |  |  |  | |  | |    /  \     |  _  \  |  |  /  |          
                  \  \/   | |  | |   /    \    | | | |  |  | /  /          
                 / \  \   | |__| |  /  /\  \   | |_| |  |  |/  /          
                |  |  |   |  __  | /  /__\  \  |    /   |      \           
                |  |  |   | |  | | |   __   |  |    \   |  |\   \          
                \     /   | |  | | |  |  |  |  | |\  \  |  | \   \       
                 \___/    |_|  |_| |__|  |__|  |_| \__\ |__|  \__/        
                                                                              
                      - O R C A' S   B I G   F R I E N D -                    
                                      &                                       
                       - I N T E G R A L  F E E D E R -                       
                                                                              
 v1 FN, 2020, v2 2021, v3 2022-2024                                           
------------------------------------------------------------------------------


----------------------
SHARK INTEGRAL PACKAGE
----------------------

Number of atoms                             ...     58
Number of basis functions                   ...   1198
Number of shells                            ...    470
Maximum angular momentum                    ...      3
Integral batch strategy                     ... SHARK/LIBINT Hybrid
RI-J (if used) integral strategy            ... SPLIT-RIJ (Revised 2003 algorithm where possible)
Printlevel                                  ...      1
Contraction scheme used                     ... SEGMENTED contraction
Prescreening option                         ... SCHWARTZ
   Thresh                                   ... 2.500e-11
   Tcut                                     ... 2.500e-12
   Tpresel                                  ... 2.500e-12 
Coulomb Range Separation                    ... NOT USED
Exchange Range Separation                   ... NOT USED
Multipole approximations                    ... NOT USED
Finite Nucleus Model                        ... NOT USED
CABS basis                                  ... NOT available
Auxiliary Coulomb fitting basis             ... AVAILABLE
   # of basis functions in Aux-J            ...   1930
   # of shells in Aux-J                     ...    630
   Maximum angular momentum in Aux-J        ...      4
Auxiliary J/K fitting basis                 ... NOT available
Auxiliary Correlation fitting basis         ... NOT available
Auxiliary 'external' fitting basis          ... NOT available

Checking pre-screening integrals            ... done (  0.0 sec) Dimension = 470
Check shell pair data                       ... done (  0.0 sec)
Shell pair information
Shell pair cut-off parameter TPreSel        ...   2.5e-12
Total number of shell pairs                 ...    110685
Shell pairs after pre-screening             ...     62363
Total number of primitive shell pairs       ...    340720
Primitive shell pairs kept                  ...    120237
          la=0 lb=0:  16288 shell pairs
          la=1 lb=0:  18591 shell pairs
          la=1 lb=1:   5332 shell pairs
          la=2 lb=0:   8562 shell pairs
          la=2 lb=1:   5013 shell pairs
          la=2 lb=2:   1145 shell pairs
          la=3 lb=0:   3906 shell pairs
          la=3 lb=1:   2335 shell pairs
          la=3 lb=2:    973 shell pairs
          la=3 lb=3:    218 shell pairs

Calculating one electron integrals          ... done (  0.1 sec)
Calculating RI/J V-Matrix + Cholesky decomp.... done (  0.2 sec)
Calculating Nuclear repulsion               ... done (  0.0 sec) ENN=   3620.615577320470 Eh

Diagonalization of the overlap matrix:
Smallest eigenvalue                        ... 6.074e-06
Time for diagonalization                   ...    0.241 sec
Threshold for overlap eigenvalues          ... 1.000e-07
Number of eigenvalues below threshold      ... 0
Time for construction of square roots      ...    0.106 sec
Total time needed                          ...    0.357 sec

-------------------
DFT GRID GENERATION
-------------------

General Integration Accuracy     IntAcc      ... 4.388
Radial Grid Type                 RadialGrid  ... OptM3 with GC (2021)
Angular Grid (max. ang.)         AngularGrid ... 4 (Lebedev-302)
Angular grid pruning method      GridPruning ... 4 (adaptive)
Weight generation scheme         WeightScheme... mBecke (2022)
Basis function cutoff            BFCut       ... 1.0000e-11
Integration weight cutoff        WCut        ... 1.0000e-14
Partially contracted basis set               ... off
Rotationally invariant grid construction     ... off
Angular grids for H and He will be reduced by one unit

Total number of grid points                  ...   280129
Total number of batches                      ...     4407
Average number of points per batch           ...       63
Average number of grid points per atom       ...     4830

--------------------
COSX GRID GENERATION
--------------------

GRIDX 1
-------
General Integration Accuracy     IntAcc      ... 3.816
Radial Grid Type                 RadialGrid  ... OptM3 with GC (2021)
Angular Grid (max. ang.)         AngularGrid ... 1 (Lebedev-50)
Angular grid pruning method      GridPruning ... 4 (adaptive)
Weight generation scheme         WeightScheme... mBecke (2022)
Basis function cutoff            BFCut       ... 1.0000e-11
Integration weight cutoff        WCut        ... 1.0000e-14
Partially contracted basis set               ... on
Rotationally invariant grid construction     ... off
Angular grids for H and He will be reduced by one unit

Total number of grid points                  ...    35464
Total number of batches                      ...      314
Average number of points per batch           ...      112
Average number of grid points per atom       ...      611
UseSFitting                                  ... on

GRIDX 2
-------
General Integration Accuracy     IntAcc      ... 4.020
Radial Grid Type                 RadialGrid  ... OptM3 with GC (2021)
Angular Grid (max. ang.)         AngularGrid ... 2 (Lebedev-110)
Angular grid pruning method      GridPruning ... 4 (adaptive)
Weight generation scheme         WeightScheme... mBecke (2022)
Basis function cutoff            BFCut       ... 1.0000e-11
Integration weight cutoff        WCut        ... 1.0000e-14
Partially contracted basis set               ... on
[...]
 H     14   7   3     1.084395864646   119.66091244   179.36951571
 H     15  10   4     1.082552901779   120.93882449   178.95165229
 H     16  14   7     1.082832051332   120.91936434   180.44860229
 H     17  12   5     1.087161251222   115.58290982   305.04530464
 H     18  13   7     1.087347544821   115.74347169    56.71901723
 H      1   2   3     0.971862253904    21.12647824   171.54899355
 H      2   1   3     0.969841054927   128.69010908   310.65856343
 H     19  17  12     1.082694598636   121.60887956   179.45114723
 H     19  17  12     1.085607453556   121.63221106     1.13662572
 H     20  18  13     1.082875451598   121.58284371   180.29247636
 H     20  18  13     1.085005162154   121.58787391     0.08054296
 H      2   1   3     3.354833983464    83.08513581   216.46459295
 H     39   2   1     2.425011203101    54.53193871   276.95428560
 O     40  39   2     2.064757308184    90.88393234   110.18970439
 C     40  39   2     1.089496147742    66.37084764   144.13613445
 C     39   2   1     1.087588284630   103.51464220   320.33266256
 C     41  40  39     1.344431704844   114.80025727   324.21842405
 O     44  41  40     1.186127465408   125.73293500   218.22220936
 O     44  41  40     1.369584265687   110.08130134    37.19691118
 F     43  39   2     1.376765413570   107.62038309   187.81625436
 H     42  40  39     1.087461841525   111.37119341   117.66127616
 H     30  16  14     5.019072593807    89.58303443    96.70116693
 H     49  30  16     1.791509177888    30.37687899   311.26087223
 C     49  30  16     1.087786550727    48.65356038   359.63486196
 F     51  49  30     2.385540301436    80.04878244    93.31583586
 C     52  51  49     1.376576218453    36.87579013   195.57329130
 H     53  52  51     1.087248880855   108.19440538   128.18106653
 O     51  49  30     1.433859823873   109.25715303   198.28098429
 O     53  52  51     1.403684002997   108.63722114   246.93225007
 C     55  51  49     1.349854894363   109.83188628   229.04548876
 O     57  55  51     1.186174181529   125.75856357   184.72168489

---------------------------
INTERNAL COORDINATES (A.U.)
---------------------------
 O      0   0   0     0.000000000000     0.00000000     0.00000000
 O      1   0   0    11.950664758765     0.00000000     0.00000000
 C      1   2   0     4.622037055479    63.26948868     0.00000000
 C      3   1   2     2.812523714936    94.48576309   359.72756870
 C      2   1   3     4.594030604930    45.97352480   320.36439888
 C      5   2   1     2.631759431636   146.44138281    27.81842146
 C      3   1   2     4.630982304214   117.04773189   178.21145211
 C      7   3   1     2.632541148777    28.60716944   182.39062113
 C      1   2   3     2.574873461825    91.69900926   359.28505778
 C      4   3   1     2.640051586364   121.76059832   295.57833557
 C      2   1   3     2.599756291203    25.51445845   357.95587554
 C      5   2   1     2.864831843884    92.92717242   211.83600295
 C      7   3   1     2.868396525232   149.52785844   180.04999128
 C      7   3   1     2.634062987425    88.98358730     2.29483411
 C     10   4   3     2.622662787382   120.69583978   180.77109690
 C     14   7   3     2.621984147378   121.09198467   359.47398211
 C     12   5   2     2.846193625976   113.78567356   299.97989663
 C     13   7   3     2.841276343187   113.78032366    56.19190498
 C     17  12   5     2.514280235668   125.24411863   124.76310533
 C     18  13   7     2.508796332920   125.09217957   237.05517423
 H      6   5   2     2.046839236286   118.57950391   183.89082382
 H      8   7   3     2.048655893676   119.10307691   180.45087168
 H     10   4   3     2.046900724637   119.86877656   359.82997106
 H     12   5   2     2.069635223103   110.17852636    63.15498914
 H     12   5   2     2.065796961729   107.91035859   178.94890028
 H     13   7   3     2.069194416258   110.05154560   293.45960053
 H     13   7   3     2.069725513334   108.26411811   177.57938081
 H     14   7   3     2.049211204937   119.66091244   179.36951571
 H     15  10   4     2.045728509845   120.93882449   178.95165229
 H     16  14   7     2.046256026050   120.91936434   180.44860229
 H     17  12   5     2.054437028221   115.58290982   305.04530464
 H     18  13   7     2.054789072104   115.74347169    56.71901723
 H      1   2   3     1.836553499774    21.12647824   171.54899355
 H      2   1   3     1.832733987246   128.69010908   310.65856343
 H     19  17  12     2.045996278099   121.60887956   179.45114723
 H     19  17  12     2.051500776164   121.63221106     1.13662572
 H     20  18  13     2.046338040667   121.58284371   180.29247636
 H     20  18  13     2.050362610362   121.58787391     0.08054296
 H      2   1   3     6.339717453518    83.08513581   216.46459295
 H     39   2   1     4.582607045551    54.53193871   276.95428560
 O     40  39   2     3.901825845481    90.88393234   110.18970439
 C     40  39   2     2.058849343194    66.37084764   144.13613445
 C     39   2   1     2.055244004412   103.51464220   320.33266256
 C     41  40  39     2.540607727916   114.80025727   324.21842405
 O     44  41  40     2.241456069543   125.73293500   218.22220936
 O     44  41  40     2.588139179477   110.08130134    37.19691118
 F     43  39   2     2.601709582302   107.62038309   187.81625436
 H     42  40  39     2.055005061571   111.37119341   117.66127616
 H     30  16  14     9.484672648565    89.58303443    96.70116693
 H     49  30  16     3.385461712615    30.37687899   311.26087223
 C     49  30  16     2.055618673036    48.65356038   359.63486196
 F     51  49  30     4.508017851145    80.04878244    93.31583586
 C     52  51  49     2.601352055346    36.87579013   195.57329130
 H     53  52  51     2.054602624228   108.19440538   128.18106653
 O     51  49  30     2.709602381553   109.25715303   198.28098429
 O     53  52  51     2.652578344231   108.63722114   246.93225007
 C     55  51  49     2.550856070880   109.83188628   229.04548876
 O     57  55  51     2.241544350217   125.75856357   184.72168489



           ************************************************************
           *        Program running with 25 parallel MPI-processes    *
           *              working on a common directory               *
           ************************************************************
------------------------------------------------------------------------------
                   ___                                                        
                  /   \      - P O W E R E D   B Y -                         
                 /     \                                                     
                 |  |  |   _    _      __       _____    __    __             
                 |  |  |  | |  | |    /  \     |  _  \  |  |  /  |          
                  \  \/   | |  | |   /    \    | | | |  |  | /  /          
                 / \  \   | |__| |  /  /\  \   | |_| |  |  |/  /          
                |  |  |   |  __  | /  /__\  \  |    /   |      \           
                |  |  |   | |  | | |   __   |  |    \   |  |\   \          
                \     /   | |  | | |  |  |  |  | |\  \  |  | \   \       
                 \___/    |_|  |_| |__|  |__|  |_| \__\ |__|  \__/        
                                                                              
                      - O R C A' S   B I G   F R I E N D -                    
                                      &                                       
                       - I N T E G R A L  F E E D E R -                       
                                                                              
 v1 FN, 2020, v2 2021, v3 2022-2024                                           
------------------------------------------------------------------------------


----------------------
SHARK INTEGRAL PACKAGE
----------------------

Number of atoms                             ...     58
Number of basis functions                   ...   1198
Number of shells                            ...    470
Maximum angular momentum                    ...      3
Integral batch strategy                     ... SHARK/LIBINT Hybrid
RI-J (if used) integral strategy            ... SPLIT-RIJ (Revised 2003 algorithm where possible)
Printlevel                                  ...      1
Contraction scheme used                     ... SEGMENTED contraction
Prescreening option                         ... SCHWARTZ
   Thresh                                   ... 2.500e-11
   Tcut                                     ... 2.500e-12
   Tpresel                                  ... 2.500e-12 
Coulomb Range Separation                    ... NOT USED
Exchange Range Separation                   ... NOT USED
Multipole approximations                    ... NOT USED
Finite Nucleus Model                        ... NOT USED
CABS basis                                  ... NOT available
Auxiliary Coulomb fitting basis             ... AVAILABLE
   # of basis functions in Aux-J            ...   1930
   # of shells in Aux-J                     ...    630
   Maximum angular momentum in Aux-J        ...      4
Auxiliary J/K fitting basis                 ... NOT available
Auxiliary Correlation fitting basis         ... NOT available
Auxiliary 'external' fitting basis          ... NOT available

Checking pre-screening integrals            ... done (  0.0 sec) Dimension = 470
Check shell pair data                       ... done (  0.0 sec)
Shell pair information
Shell pair cut-off parameter TPreSel        ...   2.5e-12
Total number of shell pairs                 ...    110685
Shell pairs after pre-screening             ...     64360
Total number of primitive shell pairs       ...    340720
Primitive shell pairs kept                  ...    124134
          la=0 lb=0:  16685 shell pairs
          la=1 lb=0:  19036 shell pairs
          la=1 lb=1:   5459 shell pairs
          la=2 lb=0:   8887 shell pairs
          la=2 lb=1:   5229 shell pairs
          la=2 lb=2:   1226 shell pairs
          la=3 lb=0:   4062 shell pairs
          la=3 lb=1:   2456 shell pairs
          la=3 lb=2:   1066 shell pairs
          la=3 lb=3:    254 shell pairs

Calculating one electron integrals          ... done (  0.1 sec)
Calculating RI/J V-Matrix + Cholesky decomp.... done (  0.2 sec)
Calculating Nuclear repulsion               ... done (  0.0 sec) ENN=   3692.788284136777 Eh

Diagonalization of the overlap matrix:
Smallest eigenvalue                        ... 5.032e-06
Time for diagonalization                   ...    0.242 sec
Threshold for overlap eigenvalues          ... 1.000e-07
Number of eigenvalues below threshold      ... 0
Time for construction of square roots      ...    0.110 sec
Total time needed                          ...    0.362 sec

-------------------
DFT GRID GENERATION
-------------------

General Integration Accuracy     IntAcc      ... 4.388
Radial Grid Type                 RadialGrid  ... OptM3 with GC (2021)
Angular Grid (max. ang.)         AngularGrid ... 4 (Lebedev-302)
Angular grid pruning method      GridPruning ... 4 (adaptive)
Weight generation scheme         WeightScheme... mBecke (2022)
Basis function cutoff            BFCut       ... 1.0000e-11
Integration weight cutoff        WCut        ... 1.0000e-14
Partially contracted basis set               ... off
Rotationally invariant grid construction     ... off
Angular grids for H and He will be reduced by one unit

Total number of grid points                  ...   279690
Total number of batches                      ...     4403
Average number of points per batch           ...       63
Average number of grid points per atom       ...     4822

--------------------
COSX GRID GENERATION
--------------------

GRIDX 1
-------
General Integration Accuracy     IntAcc      ... 3.816
Radial Grid Type                 RadialGrid  ... OptM3 with GC (2021)
Angular Grid (max. ang.)         AngularGrid ... 1 (Lebedev-50)
Angular grid pruning method      GridPruning ... 4 (adaptive)
Weight generation scheme         WeightScheme... mBecke (2022)
Basis function cutoff            BFCut       ... 1.0000e-11
Integration weight cutoff        WCut        ... 1.0000e-14
Partially contracted basis set               ... on
Rotationally invariant grid construction     ... off
Angular grids for H and He will be reduced by one unit

Total number of grid points                  ...    35376
Total number of batches                      ...      314
Average number of points per batch           ...      112
Average number of grid points per atom       ...      610
UseSFitting                                  ... on

GRIDX 2
-------
General Integration Accuracy     IntAcc      ... 4.020
Radial Grid Type                 RadialGrid  ... OptM3 with GC (2021)
Angular Grid (max. ang.)         AngularGrid ... 2 (Lebedev-110)
Angular grid pruning method      GridPruning ... 4 (adaptive)
Weight generation scheme         WeightScheme... mBecke (2022)
Basis function cutoff            BFCut       ... 1.0000e-11
Integration weight cutoff        WCut        ... 1.0000e-14
Partially contracted basis set               ... on
Rotationally invariant grid construction     ... off
Angular grids for H and He will be reduced by one unit

Total number of grid points                  ...    76924
Total number of batches                      ...      633
Average number of points per batch           ...      121
Average number of grid points per atom       ...     1326
UseSFitting                                  ... on

GRIDX 3
-------
General Integration Accuracy     IntAcc      ... 4.338
Radial Grid Type                 RadialGrid  ... OptM3 with GC (2021)
Angular Grid (max. ang.)         AngularGrid ... 3 (Lebedev-194)
Angular grid pruning method      GridPruning ... 4 (adaptive)
Weight generation scheme         WeightScheme... mBecke (2022)
Basis function cutoff            BFCut       ... 1.0000e-11
Integration weight cutoff        WCut        ... 1.0000e-14
Partially contracted basis set               ... on
Rotationally invariant grid construction     ... off
Angular grids for H and He will be reduced by one unit

Total number of grid points                  ...   168006
Total number of batches                      ...     1341
Average number of points per batch           ...      125
Average number of grid points per atom       ...     2897
UseSFitting                                  ... on
Initializing property integral containers    ... done (  0.0 sec)

SHARK setup successfully completed in   4.5 seconds

Maximum memory used throughout the entire STARTUP-calculation: 145.9 MB


           ************************************************************
           *        Program running with 25 parallel MPI-processes    *
           *              working on a common directory               *
           ************************************************************
Occupation numbers will be reassigned to an Aufbau configuration
             **** ENERGY FILE WAS UPDATED (honokiol2-opt_FEC2.en.tmp) ****
Finished Guess after   2.0 sec
Maximum memory used throughout the entire GUESS-calculation: 144.1 MB


           ************************************************************
           *        Program running with 25 parallel MPI-processes    *
           *              working on a common directory               *
           ************************************************************
----------------------------------------D-I-I-S--------------------------------------------
Iteration    Energy (Eh)           Delta-E    RMSDP     MaxDP     DIISErr   Damp  Time(sec)
-------------------------------------------------------------------------------------------
               ***  Starting incremental Fock matrix formation  ***
    1    -1730.2435689709000144     0.00e+00  3.15e-05  2.34e-03  8.73e-03  0.700   7.8
    2    -1730.2438292036304119    -2.60e-04  2.77e-05  1.96e-03  6.73e-03  0.700   3.8
                               ***Turning on AO-DIIS***
    3    -1730.2440305360105413    -2.01e-04  2.12e-05  1.43e-03  4.95e-03  0.700   3.4
    4    -1730.2441777317171727    -1.47e-04  5.21e-05  3.38e-03  3.54e-03  0.000   3.3
                              *** Initializing SOSCF ***
---------------------------------------S-O-S-C-F--------------------------------------
Iteration    Energy (Eh)           Delta-E    RMSDP     MaxDP     MaxGrad    Time(sec)
--------------------------------------------------------------------------------------
    5    -1730.2445423553963337    -3.65e-04  3.53e-06  2.78e-04  1.16e-04     4.0
               *** Restarting incremental Fock matrix formation ***
    6    -1730.2445436293592138    -1.27e-06  7.17e-06  5.26e-04  3.82e-05     7.9
    7    -1730.2445436980378872    -6.87e-08  3.63e-06  3.51e-04  4.69e-05     3.9
    8    -1730.2445437273227071    -2.93e-08  3.18e-06  1.88e-04  2.91e-05     3.6
    9    -1730.2445437590231450    -3.17e-08  2.49e-06  5.61e-04  4.83e-06     3.5
   10    -1730.2445437415226479     1.75e-08  9.36e-07  1.09e-04  4.78e-06     2.9
   11    -1730.2445437248188682     1.67e-08  1.81e-06  2.84e-04  1.42e-06     2.7
                  *** Gradient check signals convergence ***

               *****************************************************
               *                     SUCCESS                       *
               *           SCF CONVERGED AFTER  11 CYCLES          *
               *****************************************************

Recomputing exchange energy using gridx3       ... done (   11.500 sec)
Old exchange energy                            :    -43.813743609 Eh
New exchange energy                            :    -43.813718817 Eh
Exchange energy change after final integration :      0.000024792 Eh
Total energy after final integration           :  -1730.244518933 Eh
             **** ENERGY FILE WAS UPDATED (honokiol2-opt_FEC2.en.tmp) ****

----------------
TOTAL SCF ENERGY
----------------

Total Energy       :      -1730.24451893322816 Eh          -47082.34698 eV

Components:
Nuclear Repulsion  :       3692.78828413677729 Eh          100485.87781 eV
Electronic Energy  :      -5423.03282786159616 Eh         -147568.22547 eV
One Electron Energy:      -9715.45219338482821 Eh         -264370.89454 eV
Two Electron Energy:       4292.41936552323205 Eh          116802.66907 eV

Virial components:
Potential Energy   :      -3453.35299413150688 Eh          -93970.51234 eV
Kinetic Energy     :       1723.10847519827871 Eh           46888.16536 eV
Virial Ratio       :          2.00414137811848

DFT components:
N(Alpha)           :      124.999959254311 electrons
N(Beta)            :      124.999959254311 electrons
N(Total)           :      249.999918508623 electrons
E(X)               :     -174.282741708579 Eh       
E(C)               :      -10.209667304671 Eh       
E(XC)              :     -184.492409013250 Eh       

---------------
SCF CONVERGENCE
---------------

  Last Energy change         ...   -1.6704e-08  Tolerance :   1.0000e-08
  Last MAX-Density change    ...    2.8354e-04  Tolerance :   1.0000e-07
  Last RMS-Density change    ...    1.8134e-06  Tolerance :   5.0000e-09
  Last DIIS Error            ...    1.1590e-04  Tolerance :   5.0000e-07
  Last Orbital Gradient      ...    1.4157e-06  Tolerance :   1.0000e-05
  Last Orbital Rotation      ...    5.2856e-06  Tolerance :   1.0000e-05


Total SCF time: 0 days 0 hours 0 min 59 sec 
Finished LeanSCF after  60.2 sec

Maximum memory used throughout the entire LEANSCF-calculation: 222.3 MB

-------------------------   --------------------
FINAL SINGLE POINT ENERGY     -1730.244518933228
-------------------------   --------------------


ORCA finished by error termination in SCF gradient
Calling Command: mpirun -np 25  /home/yongsang/orca_6_0_1_linux_x86-64_shared_openmpi416/orca_scfgrad_mpi honokiol2-opt_FEC2.scfgrad.inp honokiol2-opt_FEC2 
[file orca_tools/qcmsg.cpp, line 394]: 
  .... aborting the run

