
                                 *****************
                                 * O   R   C   A *
                                 *****************

                                            #,                                       
                                            ###                                      
                                            ####                                     
                                            #####                                    
                                            ######                                   
                                           ########,                                 
                                     ,,################,,,,,                         
                               ,,#################################,,                 
                          ,,##########################################,,             
                       ,#########################################, ''#####,          
                    ,#############################################,,   '####,        
                  ,##################################################,,,,####,       
                ,###########''''           ''''###############################       
              ,#####''   ,,,,##########,,,,          '''####'''          '####       
            ,##' ,,,,###########################,,,                        '##       
           ' ,,###''''                  '''############,,,                           
         ,,##''                                '''############,,,,        ,,,,,,###''
      ,#''                                            '''#######################'''  
     '                                                          ''''####''''         
             ,#######,   #######,   ,#######,      ##                                
            ,#'     '#,  ##    ##  ,#'     '#,    #''#        ,####,   ,####,        
            ##       ##  ##   ,#'  ##            #'  '#       #'       #'  '#        
            ##       ##  #######   ##           ,######,      #####,   #    #        
            '#,     ,#'  ##    ##  '#,     ,#' ,#      #,     #,   #   #,  ,#        
             '#######'   ##     ##  '#######'  #'      '#     '####' # '####'        



                #########################################################
                #                        -***-                          #
                #          Department of theory and spectroscopy        #
                #                                                       #
                #                      Frank Neese                      #
                #                                                       #
                #     Directorship, Architecture, Infrastructure        #
                #                    SHARK, DRIVERS                     #
                #        Core code/Algorithms in most modules           #
                #                                                       #
                #        Max Planck Institute fuer Kohlenforschung      #
                #                Kaiser Wilhelm Platz 1                 #
                #                 D-45470 Muelheim/Ruhr                 #
                #                      Germany                          #
                #                                                       #
                #                  All rights reserved                  #
                #                        -***-                          #
                #########################################################


                         Program Version 6.0.1  -  RELEASE   -


 With contributions from (in alphabetic order):
[Max-Planck-Institut fuer Kohlenforschung]                               
  Daniel Aravena         : Magnetic Suceptibility                        
  Michael Atanasov       : Ab Initio Ligand Field Theory (pilot matlab implementation)
  Alexander A. Auer      : GIAO ZORA, VPT2 properties, NMR spectrum      
  Ute Becker             : All parallelization in ORCA, NUMFREQ, NUMCALC 
  Giovanni Bistoni       : ED, misc. LED, open-shell LED, HFLD           
  Martin Brehm           : Molecular dynamics                            
  Dmytro Bykov           : pre 5.0 version of the SCF Hessian            
  Marcos Casanova-Páez   : Triplet and SCS-CIS(D). UHF-(DLPNO)-IP/EA/STEOM-CCSD. UHF-CVS-IP/STEOM-CCSD   
  Vijay G. Chilkuri      : MRCI spin determinant printing, contributions to CSF-ICE 
  Pauline Colinet        : FMM embedding                                 
  Dipayan Datta          : RHF DLPNO-CCSD density                        
  Achintya Kumar Dutta   : EOM-CC, STEOM-CC                              
  Nicolas Foglia         : Exact transition moments, OPA infrastructure, MCD improvements    
  Dmitry Ganyushin       : Spin-Orbit,Spin-Spin,Magnetic field MRCI      
  Miquel Garcia-Rates    : C-PCM and meta-GGA Hessian, CCSD/C-PCM, Gaussian charge scheme 
  Tiago L. C. Gouveia    : GS-ROHF, GS-ROCIS                             
  Yang Guo               : DLPNO-NEVPT2, F12-NEVPT2, CIM, IAO-localization        
  Andreas Hansen         : Spin unrestricted coupled pair/coupled cluster methods 
  Ingolf Harden          : AUTO-CI MPn and infrastructure                
  Benjamin Helmich-Paris : MC-RPA, TRAH-(SCF,CASSCF), AVAS, COSX integrals, SCF dyn. polar. 
  Lee Huntington         : MR-EOM, pCC                                   
  Robert Izsak           : Overlap fitted RIJCOSX, COSX-SCS-MP3, EOM     
  Riya Kayal             : Wick's Theorem for AUTO-CI, AUTO-CI UHF-CCSDT 
  Emily Kempfer          : AUTO-CI, RHF CISDT and CCSDT                  
  Christian Kollmar      : KDIIS, OOCD, Brueckner-CCSD(T), CCSD density, CASPT2, CASPT2-K, improved NEVPT2 
  Axel Koslowski         : Symmetry handling                             
  Simone Kossmann        : meta-GGA functionals, TD-DFT gradient, OOMP2, (MP2 Hessian; deprecated post 5.0) 
  Lucas Lang             : DCDCAS                                        
  Marvin Lechner         : AUTO-CI (C++ implementation), FIC-MRCC        
  Spencer Leger          : CASSCF response                               
  Dagmar Lenk            : GEPOL surface, SMD, ORCA-2-JSON               
  Dimitrios Liakos       : Extrapolation schemes; Compound Job, initial MDCI parallelization 
  Dimitrios Manganas     : Further ROCIS development; embedding schemes. LFT, Crystal Embedding 
  Dimitrios Pantazis     : SARC Basis sets                               
  Anastasios Papadopoulos: AUTO-CI, single reference methods and gradients 
  Taras Petrenko         : pre 6.0 DFT Hessian and TD-DFT gradient, (ASA, deprecated), ECA, 1-Electron XAS/XES, NRVS 
  Peter Pinski           : DLPNO-MP2, DLPNO-MP2 Gradient                 
  Christoph Reimann      : Effective Core Potentials                     
  Marius Retegan         : Local ZFS, SOC                                
  Christoph Riplinger    : Optimizer, TS searches, QM/MM, DLPNO-CCSD(T), (RO)-DLPNO pert. Triples 
  Michael Roemelt        : Original ROCIS implementation                 
  Masaaki Saitow         : Open-shell DLPNO-CCSD energy and density      
  Barbara Sandhoefer     : DKH picture change effects                    
  Kantharuban Sivalingam : CASSCF convergence/infrastructure, NEVPT2 and variants, FIC-MRCI 
  Bernardo de Souza      : ESD, SOC TD-DFT                               
  Georgi L. Stoychev     : AutoAux, RI-MP2 NMR, DLPNO-MP2 response, X2C  
  Van Anh Tran           : RI-MP2 g-tensors                              
  Willem Van den Heuvel  : Paramagnetic NMR                              
  Zikuan Wang            : NOTCH, Electric field optimization            
  Frank Wennmohs         : Technical directorship and infrastructure     
  Hang Xu                : AUTO-CI-Response properties                   
                                                                         
[FACCTs GmbH]                                                            
  Markus Bursch, Miquel Garcia-Rates, Christoph Riplinger, Bernardo de Souza, Georgi L. Stoychev 
                                                                 
  APM, Basis sets (HGBS, AHGBS, def-TZVP (Ac-Lr), def2-XVPD (La-Lu)), CI-OPT, improved COSX, DLPNO-Multilevel,           
  DOCKER, DRACO, updates on ESD, GOAT, IRC, LR-CPCM, MBIS, meta-GGA TD-DFT gradient, ML-optimized integration grids, 
  MM, NACMEs, nearIR, NEB, NEB-TS, NL-DFT gradient (VV10), 2- and 3-layer-ONIOM, interface openCOSMO-RS, QMMM,   
  Crystal-QMMM, SF, symmetry and pop. for TD-DFT, r2SCAN hybrids, SOLVATOR                                   
                                                                         
[Other institutions]                                                     
  V. Asgeirsson          : NEB                                           
  Christoph Bannwarth    : sTDA-DFT, sTD-DFT, PBEh-3c, B97-3c, D3        
  Sebastian Ehlert       : rSCAN, r2SCAN, r2SCAN-3c, D4, dhf basis sets  
  Marvin Friede          : D4 for Fr, Ra, Ac-Lr                          
  Lars Goerigk           : TD-DFT with DH, B97 family of functionals     
  Stefan Grimme          : VdW corrections, initial TS optimization, DFT functionals, gCP, sTDA/sTD-DF 
  Waldemar Hujo          : DFT-NL                                        
  H. Jonsson             : NEB                                           
  Holger Kruse           : gCP                                           
  Marcel Mueller         : wB97X-3c, vDZP basis set                      
  Hagen Neugebauer       : wr2SCAN                                       
  Tobias Risthaus        : range-separated hybrid DFT                    
  Lukas Wittmann         : regularized MP2, r2SCAN double-hybrids, wr2SCAN        
                                                                         
We gratefully acknowledge several colleagues who have allowed us to      
interface, adapt or use parts of their codes:                            
  Ed Valeev, F. Pavosevic, A. Kumar             : LibInt (2-el integral package), F12 methods 
  Garnet Chan, S. Sharma, J. Yang, R. Olivares  : DMRG                   
  Ulf Ekstrom                                   : XCFun DFT Library      
  Mihaly Kallay                                 : mrcc  (arbitrary order and MRCC methods)
  Frank Weinhold                                : gennbo (NPA and NBO analysis)           
  Simon Mueller                                 : openCOSMO-RS                            
  Christopher J. Cramer and Donald G. Truhlar   : smd solvation model                     
  S Lehtola, MJT Oliveira, MAL Marques          : LibXC Library                           
  Liviu Ungur et al                             : ANISO software                          


 Your calculation uses the libint2 library for the computation of 2-el integrals
 For citations please refer to: http://libint.valeyev.net

 Your ORCA version has been built with support for libXC version: 6.2.2
 For citations please refer to: https://libxc.gitlab.io

 This ORCA versions uses:
   CBLAS   interface :  Fast vector & matrix operations
   LAPACKE interface :  Fast linear algebra routines
   SCALAPACK package :  Parallel linear algebra routines
   Shared memory     :  Shared parallel matrices
   BLAS/LAPACK       :  OpenBLAS 0.3.27  USE64BITINT DYNAMIC_ARCH NO_AFFINITY SkylakeX SINGLE_THREADED
        Core in use  :  SkylakeX
   Copyright (c) 2011-2014, The OpenBLAS Project


NOTE: MaxCore=5000 MB was set to SCF,MP2,MDCI,CIPSI,MRCI and CIS
      => If you want to overwrite this, your respective input block should be placed after the MaxCore statement
Your calculation utilizes the atom-pairwise dispersion correction
with the Becke-Johnson damping scheme (D3BJ)


Warning: RI is on but no J-basis has been assigned. Assigning Def2/J (nothing to worry about!)
================================================================================

----- Orbital basis set information -----
Your calculation utilizes the basis: def2-TZVP
   F. Weigend and R. Ahlrichs, Phys. Chem. Chem. Phys. 7, 3297 (2005).

----- AuxJ basis set information -----
Your calculation utilizes the auxiliary basis: def2/J
   F. Weigend, Phys. Chem. Chem. Phys. 8, 1057 (2006).

================================================================================
                                        WARNINGS
                       Please study these warnings very carefully!
================================================================================

WARNING: Old DensityContainer found on disk!
         Will remove this file - 
         If you want to keep old densities, please start your calculation with a different basename. 


WARNING: Geometry Optimization
  ===> : Switching off AutoStart
         For restart on a previous wavefunction, please use MOREAD

================================================================================
                                       INPUT FILE
================================================================================
NAME = honokiol3_EC.inp
|  1> ! OPT B3LYP def2-TZVP TightSCF D3BJ RIJCOSX
|  2> 
|  3> %maxcore 5000
|  4> 
|  5> %pal
|  6> nprocs 25
|  7> end
|  8> 
|  9> * xyz 0 1
| 10> O           1.57995245402407      1.01349424407342      2.75100898613981
| 11>   O          -3.52294925914809     -2.72342394803277      2.11751471998667
| 12>   C           1.23287581049049     -0.06761044616067      0.59782573848223
| 13>   C          -0.02479015487516     -0.73429337795215      1.00501942811838
| 14>   C          -2.37861144131323     -1.22658171024946      0.58331152005785
| 15>   C          -1.18821701578673     -0.58797840181368      0.25155365846055
| 16>   C           2.92700027033283      0.28256279835054     -1.12789807178654
| 17>   C           1.71930014927413     -0.25477749998157     -0.69606458374371
| 18>   C           1.97802764662062      0.73109562243285      1.48297748215845
| 19>   C          -0.07334087406215     -1.56142467971624      2.12809830961476
| 20>   C          -2.38568677033552     -2.07085165525620      1.69967336101115
| 21>   C          -3.63704057841663     -0.98549544010899     -0.21789947605607
| 22>   C           3.42231544369045      0.02870994730354     -2.53627689058215
| 23>   C           3.66328785757134      1.03867634770242     -0.21985489330169
| 24>   C          -1.23761256233090     -2.23243782630261      2.46463222006921
| 25>   C           3.19414819445337      1.26433776618974      1.06489582110442
| 26>   C          -4.19785904859539     -2.23944858944127     -0.82970430639920
| 27>   C           2.43271142454535      0.44488436087717     -3.58480122565224
| 28>   C          -5.42857874930029     -2.70181029931035     -0.62974946088628
| 29>   C           1.88854985733825     -0.36596440984366     -4.48358175480661
| 30>   H          -1.17489842253953      0.07471184093596     -0.60515410029497
| 31>   H           1.13998179305731     -0.86493169057672     -1.37889719381774
| 32>   H           0.81241626549305     -1.68799284371679      2.73553452379487
| 33>   H          -4.40067888718404     -0.51412924803365      0.40981222794061
| 34>   H          -3.40348741586382     -0.27311308054743     -1.01309050593000
| 35>   H           3.66133401675062     -1.03121703174704     -2.66853114109854
| 36>   H           4.35589108759455      0.58134092910821     -2.68055986828916
| 37>   H           4.61153680241324      1.46733368987170     -0.52293097442508
| 38>   H          -1.26957790902912     -2.89628192678516      3.31869617817806
| 39>   H           3.74898089080306      1.87705840546360      1.76316027835355
| 40>   H          -3.51402900612451     -2.79879640753080     -1.46233653336092
| 41>   H           2.14516253032457      1.49306553641263     -3.56788969424293
| 42>   H           0.60848430715900      1.05214301854899      2.82378399186367
| 43>   H          -4.10640631325237     -2.87474260856277      1.35820016023690
| 44>   H          -5.77536263028321     -3.61545836865213     -1.09498128704182
| 45>   H          -6.14022310803343     -2.16714168462350     -0.00859566382059
| 46>   H           1.17314061100328     -0.00873035771271     -5.21367669333605
| 47>   H           2.14463190827999     -1.41935190460939     -4.52239898722033
| 48>   H          -4.47948222303594     -0.68448410993095      3.15419822859287
| 49>   H          -3.01296139784027     -1.56076210836663      4.77484016759611
| 50>   O          -1.90596989282039      0.15980072177741      4.55472420930071
| 51>   C          -3.14590117944647     -0.48542974953390      4.87509722676122
| 52>   C          -4.13138879483537      0.08254785928043      3.84140604283459
| 53>   C          -2.05929428686856      0.97943395320875      3.50134729532993
| 54>   O          -1.17277788709974      1.59755350506741      2.99018375746649
| 55>   O          -3.34283298095691      1.02756861441647      3.10063705549192
| 56>   H          -4.97238601511136      0.60970004247979      4.28761665786796
| 57>   H          -3.40456930953034     -0.23922982350174      5.90404049937959
| 58> *
| 59> 
| 60>                          ****END OF INPUT****
================================================================================

                       *****************************
                       * Geometry Optimization Run *
                       *****************************

Geometry optimization settings:
Update method            Update   .... BFGS
Choice of coordinates    CoordSys .... (2022) Redundant Internals
Initial Hessian          InHess   .... Almloef's Model
Max. no of cycles        MaxIter  .... 144

Convergence Tolerances:
Energy Change            TolE     ....  5.0000e-06 Eh
Max. Gradient            TolMAXG  ....  3.0000e-04 Eh/bohr
RMS Gradient             TolRMSG  ....  1.0000e-04 Eh/bohr
Max. Displacement        TolMAXD  ....  4.0000e-03 bohr
RMS Displacement         TolRMSD  ....  2.0000e-03 bohr
Strict Convergence                .... False

------------------------------------------------------------------------------
                        ORCA OPTIMIZATION COORDINATE SETUP
------------------------------------------------------------------------------

The optimization will be done in redundant internal coordinates (2022)
Making redundant internal coordinates   ...  (2022 redundants) done
Evaluating the initial hessian          ...  (Almloef) done
Evaluating the coordinates              ...  done
Calculating the B-matrix                .... done
Calculating the G-matrix                .... done
Diagonalizing the G-matrix              .... done
Small eigenvalue found = 8.233e-04
Small eigenvalue found = 2.856e-03
Small eigenvalue found = 6.821e-03
Small eigenvalue found = 7.779e-03
Small eigenvalue found = 1.166e-02
Small eigenvalue found = 1.424e-02
Small eigenvalue found = 1.788e-02
Small eigenvalue found = 2.335e-02
The first mode is                       ....   98
The number of degrees of freedom        ....  138

    -----------------------------------------------------------------
                    Redundant Internal Coordinates


    -----------------------------------------------------------------
         Definition                    Initial Value    Approx d2E/dq
    -----------------------------------------------------------------
      1. B(C   3,C   2)                  1.4805         0.448011   
      2. B(C   5,C   4)                  1.3910         0.622476   
      3. B(C   5,C   3)                  1.3938         0.616133   
      4. B(C   7,C   6)                  1.3906         0.623432   
      5. B(C   7,C   2)                  1.3949         0.613613   
      6. B(C   8,C   2)                  1.4059         0.589254   
      7. B(C   8,O   0)                  1.3587         0.627744   
      8. B(C   9,C   3)                  1.3956         0.611986   
      9. B(C  10,C   4)                  1.3997         0.602967   
     10. B(C  10,O   1)                  1.3762         0.588791   
     11. B(C  11,C   4)                  1.5112         0.400297   
     12. B(C  12,C   6)                  1.5144         0.395656   
     13. B(C  13,C   6)                  1.3923         0.619646   
     14. B(C  14,C  10)                  1.3890         0.627075   
     15. B(C  14,C   9)                  1.3853         0.635690   
     16. B(C  15,C  13)                  1.3862         0.633538   
     17. B(C  15,C   8)                  1.3922         0.619875   
     18. B(C  16,C  11)                  1.5037         0.411415   
     19. B(C  17,C  12)                  1.5006         0.416121   
     20. B(C  18,C  16)                  1.3298         0.779374   
     21. B(C  19,C  17)                  1.3272         0.786994   
     22. B(H  20,C   5)                  1.0832         0.369233   
     23. B(H  21,C   7)                  1.0836         0.368686   
     24. B(H  22,C   9)                  1.0815         0.371571   
     25. B(H  23,C  11)                  1.0951         0.353352   
     26. B(H  24,C  11)                  1.0929         0.356324   
     27. B(H  25,C  12)                  1.0946         0.354115   
     28. B(H  26,C  12)                  1.0944         0.354284   
     29. B(H  27,C  13)                  1.0839         0.368299   
     30. B(H  28,C  14)                  1.0822         0.370581   
     31. B(H  29,C  15)                  1.0821         0.370768   
     32. B(H  30,C  16)                  1.0866         0.364615   
     33. B(H  31,C  17)                  1.0870         0.364038   
     34. B(H  32,O   0)                  0.9750         0.492158   
     35. B(H  33,O   1)                  0.9695         0.502173   
     36. B(H  34,C  18)                  1.0823         0.370382   
     37. B(H  35,C  18)                  1.0854         0.366208   
     38. B(H  36,C  19)                  1.0828         0.369746   
     39. B(H  37,C  19)                  1.0848         0.367095   
     40. B(H  38,O   1)                  2.4793         0.001959   
     41. B(C  41,O  40)                  1.4340         0.476055   
     42. B(C  41,H  39)                  1.0881         0.362559   
     43. B(C  42,C  41)                  1.5370         0.364120   
     44. B(C  42,H  38)                  1.0871         0.363972   
     45. B(C  43,O  40)                  1.3435         0.663914   
     46. B(O  44,H  32)                  1.8703         0.018350   
     47. B(O  44,C  43)                  1.1955         1.143283   
     48. B(O  45,C  43)                  1.3455         0.658992   
     49. B(O  45,C  42)                  1.4365         0.471669   
     50. B(H  46,C  42)                  1.0882         0.362434   
     51. B(H  47,C  41)                  1.0892         0.361226   
     52. A(C   8,O   0,H  32)          111.7052         0.367423   
     53. A(C  10,O   1,H  33)          109.4850         0.364669   
     54. A(C   7,C   2,C   8)          118.3847         0.429318   
     55. A(C   3,C   2,C   8)          122.1999         0.405932   
     56. A(C   3,C   2,C   7)          119.4004         0.408851   
     57. A(C   2,C   3,C   5)          120.8715         0.409148   
     58. A(C   2,C   3,C   9)          121.1808         0.408659   
     59. A(C   5,C   3,C   9)          117.9167         0.432564   
     60. A(C  10,C   4,C  11)          120.9898         0.399569   
     61. A(C   5,C   4,C  11)          120.8603         0.401815   
     62. A(C   5,C   4,C  10)          118.1297         0.432207   
     63. A(C   4,C   5,H  20)          118.6873         0.354649   
     64. A(C   3,C   5,H  20)          118.7846         0.354034   
     65. A(C   3,C   5,C   4)          122.4936         0.433889   
     66. A(C   7,C   6,C  12)          120.5367         0.401099   
     67. A(C   7,C   6,C  13)          117.8143         0.434453   
     68. A(C  12,C   6,C  13)          121.6432         0.400669   
     69. A(C   2,C   7,H  21)          118.2710         0.353699   
     70. A(C   6,C   7,H  21)          119.0917         0.354652   
     71. A(C   2,C   7,C   6)          122.6189         0.433689   
     72. A(O   0,C   8,C   2)          123.3912         0.428261   
     73. A(C   2,C   8,C  15)          119.4401         0.430101   
     74. A(O   0,C   8,C  15)          117.1673         0.432174   
     75. A(C   3,C   9,C  14)          120.7837         0.435003   
     76. A(C  14,C   9,H  22)          119.6842         0.356296   
     77. A(C   3,C   9,H  22)          119.5284         0.354007   
     78. A(O   1,C  10,C   4)          122.1663         0.425123   
     79. A(C   4,C  10,C  14)          120.3472         0.432779   
     80. A(O   1,C  10,C  14)          117.4309         0.428119   
     81. A(C   4,C  11,C  16)          113.1566         0.373828   
     82. A(C   4,C  11,H  24)          108.1678         0.327458   
     83. A(C  16,C  11,H  23)          109.3940         0.328487   
     84. A(C  16,C  11,H  24)          109.1010         0.328941   
     85. A(C   4,C  11,H  23)          110.2086         0.327006   
     86. A(H  23,C  11,H  24)          106.5890         0.289498   
     87. A(C   6,C  12,C  17)          112.8074         0.373809   
     88. A(H  25,C  12,H  26)          106.6645         0.289336   
     89. A(C   6,C  12,H  26)          108.4796         0.326520   
     90. A(C  17,C  12,H  25)          109.1556         0.329221   
     91. A(C   6,C  12,H  25)          110.2502         0.326495   
     92. A(C  17,C  12,H  26)          109.2917         0.329247   
     93. A(C   6,C  13,C  15)          120.9241         0.435712   
     94. A(C  15,C  13,H  27)          119.3971         0.355557   
     95. A(C   6,C  13,H  27)          119.6752         0.354223   
     96. A(C  10,C  14,H  28)          118.7884         0.355311   
     97. A(C   9,C  14,H  28)          120.9093         0.356135   
     98. A(C   9,C  14,C  10)          120.3001         0.436916   
     99. A(C  13,C  15,H  29)          121.1129         0.355961   
    100. A(C   8,C  15,H  29)          118.1007         0.354646   
    101. A(C   8,C  15,C  13)          120.7715         0.435741   
    102. A(C  11,C  16,C  18)          125.0236         0.420189   
    103. A(C  18,C  16,H  30)          119.4057         0.367719   
    104. A(C  11,C  16,H  30)          115.5581         0.330194   
    105. A(C  12,C  17,C  19)          125.0387         0.421775   
    106. A(C  19,C  17,H  31)          119.4192         0.368233   
    107. A(C  12,C  17,H  31)          115.5304         0.330729   
    108. A(H  34,C  18,H  35)          116.8550         0.292904   
    109. A(C  16,C  18,H  35)          121.4368         0.367994   
    110. A(C  16,C  18,H  34)          121.6946         0.368711   
    111. A(H  36,C  19,H  37)          116.8861         0.292937   
    112. A(C  17,C  19,H  37)          121.3811         0.368762   
    113. A(C  17,C  19,H  36)          121.7324         0.369218   
    114. A(O   0,H  32,O  44)          165.2808         0.196876   
    115. A(C  41,O  40,C  43)          110.5483         0.413701   
    116. A(H  39,C  41,O  40)          108.5679         0.335926   
    117. A(O  40,C  41,H  47)          108.3429         0.335720   
    118. A(H  39,C  41,H  47)          109.8429         0.291294   
    119. A(C  42,C  41,H  47)          113.5505         0.323123   
    120. A(O  40,C  41,C  42)          103.7613         0.374777   
    121. A(H  39,C  41,C  42)          112.4302         0.323318   
    122. A(O  45,C  42,H  46)          108.4808         0.335389   
    123. A(C  41,C  42,H  46)          113.5004         0.323300   
    124. A(H  38,C  42,H  46)          110.7036         0.291625   
    125. A(C  41,C  42,O  45)          103.7653         0.374179   
    126. A(H  38,C  42,O  45)          108.2980         0.335626   
    127. A(H  38,C  42,C  41)          111.6986         0.323524   
    128. A(O  44,C  43,O  45)          124.1633         0.484251   
    129. A(O  40,C  43,O  45)          111.3587         0.438500   
    130. A(O  40,C  43,O  44)          124.4750         0.484917   
    131. A(H  32,O  44,C  43)          126.4053         0.240467   
    132. A(C  42,O  45,C  43)          110.2762         0.412476   
    133. D(C   5,C   3,C   2,C   8)    128.2527         0.013684   
    134. D(C   5,C   3,C   2,C   7)    -53.1782         0.013684   
    135. D(C   9,C   3,C   2,C   8)    -53.8170         0.013684   
    136. D(C   9,C   3,C   2,C   7)    124.7520         0.013684   
    137. D(H  20,C   5,C   4,C  11)     -1.0487         0.026825   
    138. D(H  20,C   5,C   3,C   2)     -3.8832         0.026249   
    139. D(H  20,C   5,C   4,C  10)   -179.4310         0.026825   
    140. D(C   3,C   5,C   4,C  10)     -1.5952         0.026825   
    141. D(H  20,C   5,C   3,C   9)    178.1207         0.026249   
    142. D(C   3,C   5,C   4,C  11)    176.7871         0.026825   
    143. D(C   4,C   5,C   3,C   2)    178.2830         0.026249   
    144. D(C   4,C   5,C   3,C   9)      0.2869         0.026249   
    145. D(C   6,C   7,C   2,C   8)      2.0013         0.026022   
    146. D(H  21,C   7,C   2,C   3)      1.8025         0.026022   
    147. D(H  21,C   7,C   6,C  13)   -178.6599         0.026913   
    148. D(C   6,C   7,C   2,C   3)   -176.6224         0.026022   
    149. D(H  21,C   7,C   6,C  12)      0.4771         0.026913   
    150. D(C   2,C   7,C   6,C  12)    178.8897         0.026913   
    151. D(H  21,C   7,C   2,C   8)   -179.5738         0.026022   
    152. D(C   2,C   7,C   6,C  13)     -0.2473         0.026913   
    153. D(C  15,C   8,C   2,C   7)     -2.4893         0.023892   
    154. D(O   0,C   8,C   2,C   7)    177.9562         0.023892   
    155. D(C  15,C   8,C   2,C   3)    176.0937         0.023892   
    156. D(C  15,C   8,O   0,H  32)    149.0359         0.028964   
    157. D(O   0,C   8,C   2,C   3)     -3.4608         0.023892   
    158. D(C   2,C   8,O   0,H  32)    -31.4002         0.028964   
    159. D(H  22,C   9,C   3,C   5)   -179.5614         0.025876   
    160. D(C  14,C   9,C   3,C   5)      1.1426         0.025876   
    161. D(H  22,C   9,C   3,C   2)      2.4491         0.025876   
    162. D(C  14,C   9,C   3,C   2)   -176.8470         0.025876   
    163. D(C   4,C  10,O   1,H  33)     27.9295         0.027861   
    164. D(C  14,C  10,C   4,C  11)   -176.8745         0.025077   
    165. D(C  14,C  10,C   4,C   5)      1.5056         0.025077   
    166. D(O   1,C  10,C   4,C  11)      0.3423         0.025077   
    167. D(O   1,C  10,C   4,C   5)    178.7223         0.025077   
    168. D(C  14,C  10,O   1,H  33)   -154.7766         0.027861   
    169. D(H  24,C  11,C   4,C   5)     -0.2685         0.011891   
    170. D(H  23,C  11,C   4,C  10)     61.9002         0.011891   
    171. D(H  23,C  11,C   4,C   5)   -116.4356         0.011891   
    172. D(C  16,C  11,C   4,C  10)    -60.9394         0.011891   
    173. D(C  16,C  11,C   4,C   5)    120.7248         0.011891   
    174. D(H  26,C  12,C   6,C   7)    177.0909         0.011630   
    175. D(H  25,C  12,C   6,C  13)    112.6542         0.011630   
    176. D(H  25,C  12,C   6,C   7)    -66.4492         0.011630   
    177. D(C  17,C  12,C   6,C  13)   -125.0319         0.011630   
    178. D(C  17,C  12,C   6,C   7)     55.8646         0.011630   
    179. D(H  27,C  13,C   6,C  12)      0.5509         0.026567   
    180. D(H  27,C  13,C   6,C   7)    179.6778         0.026567   
    181. D(C  15,C  13,C   6,C  12)    179.8482         0.026567   
    182. D(C  15,C  13,C   6,C   7)     -1.0249         0.026567   
    183. D(H  28,C  14,C  10,C   4)   -179.6135         0.027248   
    184. D(H  28,C  14,C  10,O   1)      3.0409         0.027248   
    185. D(C   9,C  14,C  10,C   4)     -0.1381         0.027248   
    186. D(C   9,C  14,C  10,O   1)   -177.4838         0.027248   
    187. D(H  28,C  14,C   9,H  22)     -1.0540         0.028051   
    188. D(H  28,C  14,C   9,C   3)    178.2410         0.028051   
    189. D(C  10,C  14,C   9,H  22)    179.4819         0.028051   
    190. D(C  10,C  14,C   9,C   3)     -1.2231         0.028051   
    191. D(C   8,C  15,C  13,C   6)      0.4971         0.027849   
    192. D(H  29,C  15,C   8,C   2)    179.9117         0.026588   
    193. D(H  29,C  15,C   8,O   0)     -0.5064         0.026588   
    194. D(C  13,C  15,C   8,C   2)      1.3014         0.026588   
    195. D(C  13,C  15,C   8,O   0)   -179.1167         0.026588   
    196. D(H  29,C  15,C  13,H  27)      1.2283         0.027849   
    197. D(H  29,C  15,C  13,C   6)   -178.0710         0.027849   
    198. D(C   8,C  15,C  13,H  27)    179.7964         0.027849   
    199. D(H  30,C  16,C  11,H  23)   -179.0118         0.012533   
    200. D(H  30,C  16,C  11,C   4)    -55.7218         0.012533   
    201. D(C  18,C  16,C  11,H  24)   -116.5611         0.012533   
    202. D(C  18,C  16,C  11,H  23)     -0.3151         0.012533   
    203. D(C  18,C  16,C  11,C   4)    122.9749         0.012533   
    204. D(H  31,C  17,C  12,H  25)   -178.1767         0.012811   
    205. D(H  31,C  17,C  12,C   6)     58.8970         0.012811   
    206. D(C  19,C  17,C  12,H  26)    119.3940         0.012811   
    207. D(C  19,C  17,C  12,H  25)      3.0841         0.012811   
    208. D(C  19,C  17,C  12,C   6)   -119.8422         0.012811   
    209. D(H  35,C  18,C  16,H  30)   -179.6591         0.043653   
    210. D(H  35,C  18,C  16,C  11)      1.6906         0.043653   
    211. D(H  34,C  18,C  16,H  30)     -1.0454         0.043653   
    212. D(H  34,C  18,C  16,C  11)   -179.6958         0.043653   
    213. D(H  37,C  19,C  17,H  31)   -179.3597         0.044600   
    214. D(H  37,C  19,C  17,C  12)     -0.6659         0.044600   
    215. D(H  36,C  19,C  17,H  31)      0.8964         0.044600   
    216. D(H  36,C  19,C  17,C  12)    179.5902         0.044600   
    217. D(O  44,H  32,O   0,C   8)   -105.9764         0.264443   
    218. D(H  47,C  41,O  40,C  43)   -121.5651         0.017872   
    219. D(C  42,C  41,O  40,C  43)     -0.5953         0.017872   
    220. D(H  39,C  41,O  40,C  43)    119.1849         0.017872   
    221. D(O  45,C  42,C  41,H  47)    114.8197         0.010620   
    222. D(O  45,C  42,C  41,O  40)     -2.5795         0.010620   
    223. D(O  45,C  42,C  41,H  39)   -119.6938         0.010620   
    224. D(H  38,C  42,C  41,H  47)   -128.7328         0.010620   
    225. D(H  38,C  42,C  41,O  40)    113.8679         0.010620   
    226. D(H  38,C  42,C  41,H  39)     -3.2464         0.010620   
    227. D(O  45,C  43,O  40,C  41)      3.8986         0.032692   
    228. D(O  44,C  43,O  40,C  41)   -176.7075         0.032692   
    229. D(H  32,O  44,C  43,O  45)   -147.1066         0.111851   
    230. D(H  32,O  44,C  43,O  40)     33.5756         0.111851   
    231. D(C  43,O  44,H  32,O   0)   -149.5455         0.001656   
    232. D(C  42,O  45,C  43,O  44)    174.8659         0.032168   
    233. D(C  42,O  45,C  43,O  40)     -5.7379         0.032168   
    234. D(C  43,O  45,C  42,H  46)    125.9726         0.017538   
    235. D(C  43,O  45,C  42,C  41)      4.9920         0.017538   
    236. D(C  43,O  45,C  42,H  38)   -113.8201         0.017538   
    -----------------------------------------------------------------

Number of atoms                         .... 48
Number of degrees of freedom            .... 236


         *************************************************************
         *                GEOMETRY OPTIMIZATION CYCLE   1            *
         *************************************************************
---------------------------------
CARTESIAN COORDINATES (ANGSTROEM)
---------------------------------
  O      1.579952    1.013494    2.751009
  O     -3.522949   -2.723424    2.117515
  C      1.232876   -0.067610    0.597826
  C     -0.024790   -0.734293    1.005019
  C     -2.378611   -1.226582    0.583312
  C     -1.188217   -0.587978    0.251554
  C      2.927000    0.282563   -1.127898
  C      1.719300   -0.254777   -0.696065
  C      1.978028    0.731096    1.482977
  C     -0.073341   -1.561425    2.128098
  C     -2.385687   -2.070852    1.699673
  C     -3.637041   -0.985495   -0.217899
  C      3.422315    0.028710   -2.536277
  C      3.663288    1.038676   -0.219855
  C     -1.237613   -2.232438    2.464632
  C      3.194148    1.264338    1.064896
  C     -4.197859   -2.239449   -0.829704
  C      2.432711    0.444884   -3.584801
  C     -5.428579   -2.701810   -0.629749
  C      1.888550   -0.365964   -4.483582
  H     -1.174898    0.074712   -0.605154
  H      1.139982   -0.864932   -1.378897
  H      0.812416   -1.687993    2.735535
  H     -4.400679   -0.514129    0.409812
  H     -3.403487   -0.273113   -1.013091
  H      3.661334   -1.031217   -2.668531
  H      4.355891    0.581341   -2.680560
  H      4.611537    1.467334   -0.522931
  H     -1.269578   -2.896282    3.318696
  H      3.748981    1.877058    1.763160
  H     -3.514029   -2.798796   -1.462337
  H      2.145163    1.493066   -3.567890
  H      0.608484    1.052143    2.823784
  H     -4.106406   -2.874743    1.358200
  H     -5.775363   -3.615458   -1.094981
  H     -6.140223   -2.167142   -0.008596
  H      1.173141   -0.008730   -5.213677
  H      2.144632   -1.419352   -4.522399
  H     -4.479482   -0.684484    3.154198
  H     -3.012961   -1.560762    4.774840
  O     -1.905970    0.159801    4.554724
  C     -3.145901   -0.485430    4.875097
  C     -4.131389    0.082548    3.841406
  C     -2.059294    0.979434    3.501347
  O     -1.172778    1.597554    2.990184
  O     -3.342833    1.027569    3.100637
  H     -4.972386    0.609700    4.287617
  H     -3.404569   -0.239230    5.904040

----------------------------
CARTESIAN COORDINATES (A.U.)
----------------------------
  NO LB      ZA    FRAG     MASS         X           Y           Z
   0 O     8.0000    0    15.999    2.985677    1.915227    5.198654
   1 O     8.0000    0    15.999   -6.657409   -5.146525    4.001523
   2 C     6.0000    0    12.011    2.329798   -0.127765    1.129727
   3 C     6.0000    0    12.011   -0.046847   -1.387613    1.899211
   4 C     6.0000    0    12.011   -4.494924   -2.317904    1.102299
   5 C     6.0000    0    12.011   -2.245405   -1.111118    0.475368
   6 C     6.0000    0    12.011    5.531229    0.533966   -2.131418
   7 C     6.0000    0    12.011    3.249006   -0.481460   -1.315371
   8 C     6.0000    0    12.011    3.737931    1.381571    2.802421
   9 C     6.0000    0    12.011   -0.138594   -2.950665    4.021523
  10 C     6.0000    0    12.011   -4.508295   -3.913342    3.211917
  11 C     6.0000    0    12.011   -6.873011   -1.862316   -0.411770
  12 C     6.0000    0    12.011    6.467239    0.054254   -4.792869
  13 C     6.0000    0    12.011    6.922611    1.962814   -0.415466
  14 C     6.0000    0    12.011   -2.338749   -4.218696    4.657480
  15 C     6.0000    0    12.011    6.036065    2.389252    2.012361
  16 C     6.0000    0    12.011   -7.932804   -4.231945   -1.567914
  17 C     6.0000    0    12.011    4.597158    0.840710   -6.774293
  18 C     6.0000    0    12.011  -10.258527   -5.105682   -1.190054
  19 C     6.0000    0    12.011    3.568842   -0.691573   -8.472742
  20 H     1.0000    0     1.008   -2.220236    0.141185   -1.143576
  21 H     1.0000    0     1.008    2.154253   -1.634484   -2.605738
  22 H     1.0000    0     1.008    1.535244   -3.189844    5.169411
  23 H     1.0000    0     1.008   -8.316078   -0.971563    0.774433
  24 H     1.0000    0     1.008   -6.431659   -0.516109   -1.914464
  25 H     1.0000    0     1.008    6.918919   -1.948718   -5.042793
  26 H     1.0000    0     1.008    8.231441    1.098575   -5.065524
  27 H     1.0000    0     1.008    8.714542    2.772859   -0.988196
  28 H     1.0000    0     1.008   -2.399155   -5.473180    6.271427
  29 H     1.0000    0     1.008    7.084547    3.547126    3.331890
  30 H     1.0000    0     1.008   -6.640552   -5.288959   -2.763416
  31 H     1.0000    0     1.008    4.053770    2.821485   -6.742334
  32 H     1.0000    0     1.008    1.149869    1.988262    5.336178
  33 H     1.0000    0     1.008   -7.759983   -5.432476    2.566626
  34 H     1.0000    0     1.008  -10.913854   -6.832226   -2.069215
  35 H     1.0000    0     1.008  -11.603340   -4.095304   -0.016243
  36 H     1.0000    0     1.008    2.216914   -0.016498   -9.852421
  37 H     1.0000    0     1.008    4.052767   -2.682186   -8.546096
  38 H     1.0000    0     1.008   -8.464995   -1.293488    5.960571
  39 H     1.0000    0     1.008   -5.693672   -2.949413    9.023140
  40 O     8.0000    0    15.999   -3.601761    0.301980    8.607181
  41 C     6.0000    0    12.011   -5.944892   -0.917329    9.212599
  42 C     6.0000    0    12.011   -7.807193    0.155993    7.259205
  43 C     6.0000    0    12.011   -3.891502    1.850862    6.616587
  44 O     8.0000    0    15.999   -2.216229    3.018939    5.650628
  45 O     8.0000    0    15.999   -6.317039    1.941823    5.859355
  46 H     1.0000    0     1.008   -9.396448    1.152166    8.102421
  47 H     1.0000    0     1.008   -6.433704   -0.452079   11.157020

--------------------------------
INTERNAL COORDINATES (ANGSTROEM)
--------------------------------
 O      0   0   0     0.000000000000     0.00000000     0.00000000
 O      1   0   0     6.356530378598     0.00000000     0.00000000
 C      1   2   0     2.434224238998    62.37306534     0.00000000
 C      3   1   2     1.480539264208    94.46386617     1.02315345
 C      2   1   3     2.429778834547    47.36578557   324.68119980
 C      5   2   1     1.391012707563   146.76735731    24.60363383
 C      3   1   2     2.443522387034   117.52950189   182.73689852
 C      7   3   1     1.390594959006    28.73919229   182.33062261
 C      1   2   3     1.358718784574    91.14607563   358.09109781
 C      4   3   1     1.395639472340   121.18077295   304.56597695
 C      2   1   3     1.376156955812    24.22553680   356.90469483
 C      5   2   1     1.511193416825    92.34157159   206.95350181
 C      7   3   1     1.514367619891   149.26714562   180.45906857
 C      7   3   1     1.392253398138    89.07537659     2.11183515
 C     10   4   3     1.385295015468   120.78367501   183.15303754
 C     14   7   3     1.386217694834   120.92407501   358.85619976
 C     12   5   2     1.503735684103   113.15657198   299.22485482
 C     13   7   3     1.500640042934   112.80736619    56.90929782
 C     17  12   5     1.329823775055   125.02358316   122.97492635
 C     18  13   7     1.327175188056   125.03868926   240.15784931
 H      6   5   2     1.083182314605   118.68732316   181.68674160
 H      8   7   3     1.083585837639   119.09169027   181.58743109
 H     10   4   3     1.081463806472   119.52842886     2.44906215
 H     12   5   2     1.095149093495   110.20858643    62.06438515
 H     12   5   2     1.092869836689   108.16780766   178.23151443
 H     13   7   3     1.094562134356   110.25022236   294.59548492
 H     13   7   3     1.094432301514   108.47959431   178.13559920
 H     14   7   3     1.083871897107   119.67518387   179.55882892
 H     15  10   4     1.082190379589   120.90931272   178.24097595
 H     16  14   7     1.082053212642   121.11289926   181.92897989
 H     17  12   5     1.086608044871   115.55813817   304.27821612
 H     18  13   7     1.087039163604   115.53037329    58.89698606
 H      1   2   3     0.974956557801    39.72105109   121.78510611
 H      2   1   3     0.969473089702   130.76458913   324.32956273
 H     19  17  12     1.082336595884   121.69457427   180.30423683
 H     19  17  12     1.085421697064   121.43682279     1.69059150
 H     20  18  13     1.082804311503   121.73236129   179.59022257
 H     20  18  13     1.084762650756   121.38107828   359.33406332
 H      2   1   3     2.479303061632    77.55974876   227.88592383
 H     39   2   1     2.354788049004    75.01711994   295.45706027
 O     40  39   2     2.057721477692    87.14917604   115.97049979
 C     40  39   2     1.088147115697    67.64037536   153.57171296
 C     39   2   1     1.087088614835   136.14112476   328.92728004
 C     41  40  39     1.343469362049   122.18133501   343.67529479
 O     44  41  40     1.195521338116   124.47504221   214.42974041
 O     44  41  40     1.345495158350   111.35870056    35.03584722
 H     43  39   2     1.088241545675   110.70364251   198.93832320
 H     42  40  39     1.089150064668   109.84294841   128.98672686

---------------------------
INTERNAL COORDINATES (A.U.)
---------------------------
 O      0   0   0     0.000000000000     0.00000000     0.00000000
 O      1   0   0    12.012101577501     0.00000000     0.00000000
 C      1   2   0     4.600017160259    62.37306534     0.00000000
 C      3   1   2     2.797813739870    94.46386617     1.02315345
 C      2   1   3     4.591616563292    47.36578557   324.68119980
 C      5   2   1     2.628633066098   146.76735731    24.60363383
 C      3   1   2     4.617588113600   117.52950189   182.73689852
 C      7   3   1     2.627843635732    28.73919229   182.33062261
 C      1   2   3     2.567606395859    91.14607563   358.09109781
 C      4   3   1     2.637376384414   121.18077295   304.56597695
 C      2   1   3     2.600559763776    24.22553680   356.90469483
 C      5   2   1     2.855741693184    92.34157159   206.95350181
 C      7   3   1     2.861740067673   149.26714562   180.45906857
 C      7   3   1     2.630977631503    89.07537659     2.11183515
 C     10   4   3     2.617828193922   120.78367501   183.15303754
 C     14   7   3     2.619571805232   120.92407501   358.85619976
 C     12   5   2     2.841648620760   113.15657198   299.22485482
 C     13   7   3     2.835798706740   112.80736619    56.90929782
 C     17  12   5     2.513002741230   125.02358316   122.97492635
 C     18  13   7     2.507997637161   125.03868926   240.15784931
 H      6   5   2     2.046917927711   118.68732316   181.68674160
 H      8   7   3     2.047680475733   119.09169027   181.58743109
 H     10   4   3     2.043670417980   119.52842886     2.44906215
 H     12   5   2     2.069531862518   110.20858643    62.06438515
 H     12   5   2     2.065224691366   108.16780766   178.23151443
 H     13   7   3     2.068422670494   110.25022236   294.59548492
 H     13   7   3     2.068177321979   108.47959431   178.13559920
 H     14   7   3     2.048221049786   119.67518387   179.55882892
 H     15  10   4     2.045043442188   120.90931272   178.24097595
 H     16  14   7     2.044784234222   121.11289926   181.92897989
 H     17  12   5     2.053391619721   115.55813817   304.27821612
 H     18  13   7     2.054206316059   115.53037329    58.89698606
 H      1   2   3     1.842400886715    39.72105109   121.78510611
 H      2   1   3     1.832038633744   130.76458913   324.32956273
 H     19  17  12     2.045319750941   121.69457427   180.30423683
 H     19  17  12     2.051149747267   121.43682279     1.69059150
 H     20  18  13     2.046203605370   121.73236129   179.59022257
 H     20  18  13     2.049904330236   121.38107828   359.33406332
 H      2   1   3     4.685203789477    77.55974876   227.88592383
 H     39   2   1     4.449904516048    75.01711994   295.45706027
 O     40  39   2     3.888530052726    87.14917604   115.97049979
 C     40  39   2     2.056300042083    67.64037536   153.57171296
 C     39   2   1     2.054299765342   136.14112476   328.92728004
 C     41  40  39     2.538789163586   122.18133501   343.67529479
 O     44  41  40     2.259207916298   124.47504221   214.42974041
 O     44  41  40     2.542617363798   111.35870056    35.03584722
 H     43  39   2     2.056478488880   110.70364251   198.93832320
 H     42  40  39     2.058195340965   109.84294841   128.98672686

---------------------
BASIS SET INFORMATION
---------------------
There are 3 groups of distinct atoms

 Group   1 Type O   : 11s6p2d1f contracted to 5s3p2d1f pattern {62111/411/11/1}
 Group   2 Type C   : 11s6p2d1f contracted to 5s3p2d1f pattern {62111/411/11/1}
 Group   3 Type H   : 5s1p contracted to 3s1p pattern {311/1}

Atom   0O    basis set group =>   1
Atom   1O    basis set group =>   1
Atom   2C    basis set group =>   2
Atom   3C    basis set group =>   2
Atom   4C    basis set group =>   2
Atom   5C    basis set group =>   2
Atom   6C    basis set group =>   2
Atom   7C    basis set group =>   2
Atom   8C    basis set group =>   2
Atom   9C    basis set group =>   2
Atom  10C    basis set group =>   2
Atom  11C    basis set group =>   2
Atom  12C    basis set group =>   2
Atom  13C    basis set group =>   2
Atom  14C    basis set group =>   2
Atom  15C    basis set group =>   2
Atom  16C    basis set group =>   2
Atom  17C    basis set group =>   2
Atom  18C    basis set group =>   2
Atom  19C    basis set group =>   2
Atom  20H    basis set group =>   3
Atom  21H    basis set group =>   3
Atom  22H    basis set group =>   3
Atom  23H    basis set group =>   3
Atom  24H    basis set group =>   3
Atom  25H    basis set group =>   3
Atom  26H    basis set group =>   3
Atom  27H    basis set group =>   3
Atom  28H    basis set group =>   3
Atom  29H    basis set group =>   3
Atom  30H    basis set group =>   3
Atom  31H    basis set group =>   3
Atom  32H    basis set group =>   3
Atom  33H    basis set group =>   3
Atom  34H    basis set group =>   3
Atom  35H    basis set group =>   3
Atom  36H    basis set group =>   3
Atom  37H    basis set group =>   3
Atom  38H    basis set group =>   3
Atom  39H    basis set group =>   3
Atom  40O    basis set group =>   1
Atom  41C    basis set group =>   2
Atom  42C    basis set group =>   2
Atom  43C    basis set group =>   2
Atom  44O    basis set group =>   1
Atom  45O    basis set group =>   1
Atom  46H    basis set group =>   3
Atom  47H    basis set group =>   3
---------------------------------
AUXILIARY/J BASIS SET INFORMATION
---------------------------------
There are 3 groups of distinct atoms

 Group   1 Type O   : 12s5p4d2f1g contracted to 6s4p3d1f1g pattern {711111/2111/211/2/1}
 Group   2 Type C   : 12s5p4d2f1g contracted to 6s4p3d1f1g pattern {711111/2111/211/2/1}
 Group   3 Type H   : 5s2p1d contracted to 3s1p1d pattern {311/2/1}

Atom   0O    basis set group =>   1
Atom   1O    basis set group =>   1
Atom   2C    basis set group =>   2
Atom   3C    basis set group =>   2
Atom   4C    basis set group =>   2
Atom   5C    basis set group =>   2
Atom   6C    basis set group =>   2
Atom   7C    basis set group =>   2
Atom   8C    basis set group =>   2
Atom   9C    basis set group =>   2
Atom  10C    basis set group =>   2
Atom  11C    basis set group =>   2
Atom  12C    basis set group =>   2
Atom  13C    basis set group =>   2
Atom  14C    basis set group =>   2
Atom  15C    basis set group =>   2
Atom  16C    basis set group =>   2
Atom  17C    basis set group =>   2
Atom  18C    basis set group =>   2
Atom  19C    basis set group =>   2
Atom  20H    basis set group =>   3
Atom  21H    basis set group =>   3
Atom  22H    basis set group =>   3
Atom  23H    basis set group =>   3
Atom  24H    basis set group =>   3
Atom  25H    basis set group =>   3
Atom  26H    basis set group =>   3
Atom  27H    basis set group =>   3
Atom  28H    basis set group =>   3
Atom  29H    basis set group =>   3
Atom  30H    basis set group =>   3
Atom  31H    basis set group =>   3
Atom  32H    basis set group =>   3
Atom  33H    basis set group =>   3
Atom  34H    basis set group =>   3
Atom  35H    basis set group =>   3
Atom  36H    basis set group =>   3
Atom  37H    basis set group =>   3
Atom  38H    basis set group =>   3
Atom  39H    basis set group =>   3
Atom  40O    basis set group =>   1
Atom  41C    basis set group =>   2
Atom  42C    basis set group =>   2
Atom  43C    basis set group =>   2
Atom  44O    basis set group =>   1
Atom  45O    basis set group =>   1
Atom  46H    basis set group =>   3
Atom  47H    basis set group =>   3
--------------------------------------------------------------------------
WARNING: There was an error initializing an OpenFabrics device.

  Local host:   ga00
  Local device: mlx5_0
--------------------------------------------------------------------------
--------------------------------------------------------------------------
WARNING: There is at least one non-excluded one OpenFabrics device found,
but there are no active ports detected (or Open MPI was unable to use
them).  This is most certainly not what you wanted.  Check your
cables, subnet manager configuration, etc.  The openib BTL will be
ignored for this job.

  Local host: ga00
--------------------------------------------------------------------------


           ************************************************************
           *        Program running with 25 parallel MPI-processes    *
           *              working on a common directory               *
           ************************************************************
------------------------------------------------------------------------------
                             ORCA STARTUP CALCULATIONS
                           -- RI-GTO INTEGRALS CHOSEN --
------------------------------------------------------------------------------
------------------------------------------------------------------------------
                   ___                                                        
                  /   \      - P O W E R E D   B Y -                         
                 /     \                                                     
                 |  |  |   _    _      __       _____    __    __             
                 |  |  |  | |  | |    /  \     |  _  \  |  |  /  |          
                  \  \/   | |  | |   /    \    | | | |  |  | /  /          
                 / \  \   | |__| |  /  /\  \   | |_| |  |  |/  /          
                |  |  |   |  __  | /  /__\  \  |    /   |      \           
                |  |  |   | |  | | |   __   |  |    \   |  |\   \          
                \     /   | |  | | |  |  |  |  | |\  \  |  | \   \       
                 \___/    |_|  |_| |__|  |__|  |_| \__\ |__|  \__/        
                                                                              
                      - O R C A' S   B I G   F R I E N D -                    
                                      &                                       
                       - I N T E G R A L  F E E D E R -                       
                                                                              
 v1 FN, 2020, v2 2021, v3 2022-2024                                           
------------------------------------------------------------------------------


----------------------
SHARK INTEGRAL PACKAGE
----------------------

Number of atoms                             ...     48
Number of basis functions                   ...    938
Number of shells                            ...    374
Maximum angular momentum                    ...      3
Integral batch strategy                     ... SHARK/LIBINT Hybrid
RI-J (if used) integral strategy            ... SPLIT-RIJ (Revised 2003 algorithm where possible)
Printlevel                                  ...      1
Contraction scheme used                     ... SEGMENTED contraction
Prescreening option                         ... SCHWARTZ
   Thresh                                   ... 2.500e-11
   Tcut                                     ... 2.500e-12
   Tpresel                                  ... 2.500e-12 
Coulomb Range Separation                    ... NOT USED
Exchange Range Separation                   ... NOT USED
Multipole approximations                    ... NOT USED
Finite Nucleus Model                        ... NOT USED
CABS basis                                  ... NOT available
Auxiliary Coulomb fitting basis             ... AVAILABLE
   # of basis functions in Aux-J            ...   1516
   # of shells in Aux-J                     ...    500
   Maximum angular momentum in Aux-J        ...      4
Auxiliary J/K fitting basis                 ... NOT available
Auxiliary Correlation fitting basis         ... NOT available
Auxiliary 'external' fitting basis          ... NOT available

Checking pre-screening integrals            ... done (  0.0 sec) Dimension = 374
Check shell pair data                       ... done (  0.0 sec)
Shell pair information
Shell pair cut-off parameter TPreSel        ...   2.5e-12
Total number of shell pairs                 ...     70125
Shell pairs after pre-screening             ...     45757
Total number of primitive shell pairs       ...    213516
Primitive shell pairs kept                  ...     90743
          la=0 lb=0:  12143 shell pairs
          la=1 lb=0:  13388 shell pairs
          la=1 lb=1:   3712 shell pairs
          la=2 lb=0:   6370 shell pairs
          la=2 lb=1:   3587 shell pairs
          la=2 lb=2:    882 shell pairs
          la=3 lb=0:   2959 shell pairs
          la=3 lb=1:   1714 shell pairs
          la=3 lb=2:    799 shell pairs
          la=3 lb=3:    203 shell pairs

Calculating one electron integrals          ... done (  0.1 sec)
Calculating RI/J V-Matrix + Cholesky decomp.... done (  0.1 sec)
Calculating Nuclear repulsion               ... done (  0.0 sec) ENN=   2330.830571029418 Eh

Diagonalization of the overlap matrix:
Smallest eigenvalue                        ... 5.178e-06
Time for diagonalization                   ...    0.131 sec
Threshold for overlap eigenvalues          ... 1.000e-07
Number of eigenvalues below threshold      ... 0
Time for construction of square roots      ...    0.061 sec
Total time needed                          ...    0.199 sec

-------------------
DFT GRID GENERATION
-------------------

General Integration Accuracy     IntAcc      ... 4.388
Radial Grid Type                 RadialGrid  ... OptM3 with GC (2021)
Angular Grid (max. ang.)         AngularGrid ... 4 (Lebedev-302)
Angular grid pruning method      GridPruning ... 4 (adaptive)
Weight generation scheme         WeightScheme... mBecke (2022)
Basis function cutoff            BFCut       ... 1.0000e-11
Integration weight cutoff        WCut        ... 1.0000e-14
Partially contracted basis set               ... off
Rotationally invariant grid construction     ... off
Angular grids for H and He will be reduced by one unit

Total number of grid points                  ...   225164
Total number of batches                      ...     3543
Average number of points per batch           ...       63
Average number of grid points per atom       ...     4691

--------------------
COSX GRID GENERATION
--------------------

GRIDX 1
-------
General Integration Accuracy     IntAcc      ... 3.816
Radial Grid Type                 RadialGrid  ... OptM3 with GC (2021)
Angular Grid (max. ang.)         AngularGrid ... 1 (Lebedev-50)
Angular grid pruning method      GridPruning ... 4 (adaptive)
Weight generation scheme         WeightScheme... mBecke (2022)
Basis function cutoff            BFCut       ... 1.0000e-11
Integration weight cutoff        WCut        ... 1.0000e-14
Partially contracted basis set               ... on
Rotationally invariant grid construction     ... off
Angular grids for H and He will be reduced by one unit

Total number of grid points                  ...    28557
Total number of batches                      ...      252
Average number of points per batch           ...      113
Average number of grid points per atom       ...      595
UseSFitting                                  ... on

GRIDX 2
-------
General Integration Accuracy     IntAcc      ... 4.020
Radial Grid Type                 RadialGrid  ... OptM3 with GC (2021)
Angular Grid (max. ang.)         AngularGrid ... 2 (Lebedev-110)
Angular grid pruning method      GridPruning ... 4 (adaptive)
Weight generation scheme         WeightScheme... mBecke (2022)
Basis function cutoff            BFCut       ... 1.0000e-11
Integration weight cutoff        WCut        ... 1.0000e-14
Partially contracted basis set               ... on
Rotationally invariant grid construction     ... off
Angular grids for H and He will be reduced by one unit

Total number of grid points                  ...    61567
Total number of batches                      ...      509
Average number of points per batch           ...      120
Average number of grid points per atom       ...     1283
UseSFitting                                  ... on

GRIDX 3
-------
General Integration Accuracy     IntAcc      ... 4.338
Radial Grid Type                 RadialGrid  ... OptM3 with GC (2021)
Angular Grid (max. ang.)         AngularGrid ... 3 (Lebedev-194)
Angular grid pruning method      GridPruning ... 4 (adaptive)
Weight generation scheme         WeightScheme... mBecke (2022)
Basis function cutoff            BFCut       ... 1.0000e-11
Integration weight cutoff        WCut        ... 1.0000e-14
Partially contracted basis set               ... on
Rotationally invariant grid construction     ... off
Angular grids for H and He will be reduced by one unit

Total number of grid points                  ...   134356
Total number of batches                      ...     1073
Average number of points per batch           ...      125
Average number of grid points per atom       ...     2799
UseSFitting                                  ... on
Initializing property integral containers    ... done (  0.0 sec)

SHARK setup successfully completed in   3.0 seconds

Maximum memory used throughout the entire STARTUP-calculation: 99.0 MB
[ga00:189982] 23 more processes have sent help message help-mpi-btl-openib.txt / error in device init
[ga00:189982] Set MCA parameter "orte_base_help_aggregate" to 0 to see all help / error messages
--------------------------------------------------------------------------
WARNING: There was an error initializing an OpenFabrics device.

  Local host:   ga00
  Local device: mlx5_0
--------------------------------------------------------------------------


           ************************************************************
           *        Program running with 25 parallel MPI-processes    *
           *              working on a common directory               *
           ************************************************************
-------------------------------------------------------------------------------
                                 ORCA GUESS
                   Start orbitals & Density for SCF / CASSCF
-------------------------------------------------------------------------------

------------
SCF SETTINGS
------------
Hamiltonian:
 Density Functional     Method          .... DFT(GTOs)
 Exchange Functional    Exchange        .... B88
   X-Alpha parameter    XAlpha          ....  0.666667
   Becke's b parameter  XBeta           ....  0.004200
 Correlation Functional Correlation     .... LYP
 LDA part of GGA corr.  LDAOpt          .... VWN-5
 Gradients option       PostSCFGGA      .... off
 Hybrid DFT is turned on
   Fraction HF Exchange ScalHFX         ....  0.200000
   Scaling of DF-GGA-X  ScalDFX         ....  0.720000
   Scaling of DF-GGA-C  ScalDFC         ....  0.810000
   Scaling of DF-LDA-C  ScalLDAC        ....  1.000000
   Perturbative correction              ....  0.000000
   NL short-range parameter             ....  4.800000
 RI-approximation to the Coulomb term is turned on
   Number of AuxJ basis functions       .... 1516
   RIJ-COSX (HFX calculated with COS-X)).... on


General Settings:
 Integral files         IntName         .... honokiol3_EC
 Hartree-Fock type      HFTyp           .... RHF
 Total Charge           Charge          ....    0
 Multiplicity           Mult            ....    1
 Number of Electrons    NEL             ....  188
 Basis Dimension        Dim             ....  938
 Nuclear Repulsion      ENuc            ....   2330.8305710294 Eh

Convergence Acceleration:
 AO-DIIS                CNVDIIS         .... on
   Start iteration      DIISMaxIt       ....    12
   Startup error        DIISStart       ....  0.200000
   # of expansion vecs  DIISMaxEq       ....     5
   Bias factor          DIISBfac        ....   1.050
   Max. coefficient     DIISMaxC        ....  10.000
 MO-DIIS                CNVKDIIS        .... off
 Trust-Rad. Augm. Hess. CNVTRAH         .... auto
   Auto Start mean grad. ratio tolernc. ....  1.125000
   Auto Start start iteration           ....    50
   Auto Start num. interpolation iter.  ....    10
   Max. Number of Micro iterations      ....    24
   Max. Number of Macro iterations      .... Maxiter - #DIIS iter
   Number of Davidson start vectors     ....     2
   Converg. threshold    (grad. norm)   ....   1.000e-05
   Grad. Scal. Fac. for Micro threshold ....   0.100
   Minimum threshold for Micro iter.    ....   1.000e-02
   NR start threshold (gradient norm)   ....   1.000e-04
   Initial trust radius                 ....   0.400
   Minimum AH scaling param. (alpha)    ....   1.000
   Maximum AH scaling param. (alpha)    .... 1000.000
   Quad. conv. algorithm                .... NR
   White noise on init. David. guess    .... on
   Maximum white noise                  ....   0.010
   Pseudo random numbers                .... off
   Inactive MOs                         .... canonical
   Orbital update algorithm             .... Taylor
   Preconditioner                       .... Diag
   Full preconditioner red. dimension   ....   250
 SOSCF                  CNVSOSCF        .... on
   Start iteration      SOSCFMaxIt      ....   150
   Startup grad/error   SOSCFStart      ....  0.003300
   Hessian update       SOSCFHessUp     .... L-BFGS
 Level Shifting         CNVShift        .... on
   Level shift para.    LevelShift      ....    0.2500
   Turn off err/grad.   ShiftErr        ....    0.0010
 Zerner damping         CNVZerner       .... off
 Static damping         CNVDamp         .... on
   Fraction old density DampFac         ....    0.7000
   Max. Damping (<1)    DampMax         ....    0.9800
   Min. Damping (>=0)   DampMin         ....    0.0000
   Turn off err/grad.   DampErr         ....    0.1000

SCF Procedure:
 Maximum # iterations   MaxIter         ....   125
 SCF integral mode      SCFMode         .... Direct
   Integral package                     .... SHARK and LIBINT hybrid scheme
 Reset frequency        DirectResetFreq ....    20
 Integral Threshold     Thresh          ....  2.500e-11 Eh
 Primitive CutOff       TCut            ....  2.500e-12 Eh

Convergence Tolerance:
 Convergence Check Mode ConvCheckMode   .... Total+1el-Energy
 Convergence forced     ConvForced      .... 0
 Energy Change          TolE            ....  1.000e-08 Eh
 1-El. energy change                    ....  1.000e-05 Eh
 Orbital Gradient       TolG            ....  1.000e-05
 Orbital Rotation angle TolX            ....  1.000e-05
 DIIS Error             TolErr          ....  5.000e-07

------------------------------
INITIAL GUESS: MODEL POTENTIAL
------------------------------
Loading Hartree-Fock densities                     ... done
Calculating cut-offs                               ... done
Initializing the effective Hamiltonian             ... done
Setting up the integral package (SHARK)            ... done
Starting the Coulomb interaction                   ... done (   0.2 sec)
Making the grid                                    ... done (   0.2 sec)
Mapping shells                                     ... done
Starting the XC term evaluation                    ... done (   0.1 sec)
  promolecular density results
     # of electrons  =    187.990285306
     EX              =   -155.573292828
     EC              =     -6.410037826
     EX+EC           =   -161.983330654
Transforming the Hamiltonian                       ... done (   0.1 sec)
Diagonalizing the Hamiltonian                      ... done (   0.1 sec)
Back transforming the eigenvectors                 ... done (   0.0 sec)
Now organizing SCF variables                       ... done
                      ------------------
                      INITIAL GUESS DONE (   0.9 sec)
                      ------------------
             **** ENERGY FILE WAS UPDATED (honokiol3_EC.en.tmp) ****
Finished Guess after   1.6 sec
Maximum memory used throughout the entire GUESS-calculation: 81.8 MB
[ga00:190144] 24 more processes have sent help message help-mpi-btl-openib.txt / error in device init
[ga00:190144] Set MCA parameter "orte_base_help_aggregate" to 0 to see all help / error messages
--------------------------------------------------------------------------
WARNING: There was an error initializing an OpenFabrics device.

  Local host:   ga00
  Local device: mlx5_0
--------------------------------------------------------------------------


           ************************************************************
           *        Program running with 25 parallel MPI-processes    *
           *              working on a common directory               *
           ************************************************************

-------------------------------------------------------------------------------------------
                                      ORCA LEAN-SCF
                              memory conserving SCF solver
-------------------------------------------------------------------------------------------

----------------------------------------D-I-I-S--------------------------------------------
Iteration    Energy (Eh)           Delta-E    RMSDP     MaxDP     DIISErr   Damp  Time(sec)
-------------------------------------------------------------------------------------------
               ***  Starting incremental Fock matrix formation  ***
[ga00:190272] 24 more processes have sent help message help-mpi-btl-openib.txt / error in device init
[ga00:190272] Set MCA parameter "orte_base_help_aggregate" to 0 to see all help / error messages
    1    -1188.6144848241301588     0.00e+00  1.55e-03  1.78e-01  2.86e-01  0.700   5.2
    2    -1188.9497165591596968    -3.35e-01  1.44e-03  2.06e-01  1.04e-01  0.700   3.3
                               ***Turning on AO-DIIS***
    3    -1189.0863995220111065    -1.37e-01  5.15e-04  6.63e-02  3.79e-02  0.700   3.0
    4    -1189.1678958111992870    -8.15e-02  6.82e-04  4.55e-02  1.96e-02  0.000   2.9
    5    -1189.3452348135015200    -1.77e-01  3.68e-04  5.89e-02  5.13e-03  0.000   2.9
                              *** Initializing SOSCF ***
---------------------------------------S-O-S-C-F--------------------------------------
Iteration    Energy (Eh)           Delta-E    RMSDP     MaxDP     MaxGrad    Time(sec)
--------------------------------------------------------------------------------------
    6    -1189.3461043379456896    -8.70e-04  1.27e-04  1.92e-02  1.60e-03     3.0
               *** Restarting incremental Fock matrix formation ***
    7    -1189.3461042194494439     1.18e-07  9.19e-05  1.04e-02  2.46e-04     5.1
    8    -1189.3460968149079235     7.40e-06  1.54e-05  1.45e-03  5.73e-04     3.7
    9    -1189.3461118700752195    -1.51e-05  1.19e-05  7.14e-04  5.57e-05     3.3
   10    -1189.3461116093544661     2.61e-07  3.87e-06  3.67e-04  6.07e-05     3.1
   11    -1189.3461121864015695    -5.77e-07  4.15e-06  5.08e-04  1.16e-05     2.7
   12    -1189.3461121812792953     5.12e-09  1.29e-06  1.80e-04  1.46e-05     2.6
                 **** Energy Check signals convergence ****

               *****************************************************
               *                     SUCCESS                       *
               *           SCF CONVERGED AFTER  12 CYCLES          *
               *****************************************************

Recomputing exchange energy using gridx3       ... done (    7.537 sec)
Old exchange energy                            :    -31.603620095 Eh
New exchange energy                            :    -31.603636078 Eh
Exchange energy change after final integration :     -0.000015983 Eh
Total energy after final integration           :  -1189.346128164 Eh
             **** ENERGY FILE WAS UPDATED (honokiol3_EC.en.tmp) ****

----------------
TOTAL SCF ENERGY
----------------

Total Energy       :      -1189.34612816414369 Eh          -32363.75349 eV

Components:
Nuclear Repulsion  :       2330.83057102941848 Eh           63425.12431 eV
Electronic Energy  :      -3520.17668321069777 Eh          -95788.87736 eV
One Electron Energy:      -6252.97051300222938 Eh         -170151.97802 eV
Two Electron Energy:       2732.79382979153161 Eh           74363.10066 eV

Virial components:
Potential Energy   :      -2373.68461758117064 Eh          -64591.24220 eV
Kinetic Energy     :       1184.33848941702695 Eh           32227.48871 eV
Virial Ratio       :          2.00422821582838

DFT components:
N(Alpha)           :       93.999904646183 electrons
N(Beta)            :       93.999904646183 electrons
N(Total)           :      187.999809292366 electrons
E(X)               :     -125.618624902767 Eh       
E(C)               :       -7.555106475468 Eh       
E(XC)              :     -133.173731378235 Eh       

---------------
SCF CONVERGENCE
---------------

  Last Energy change         ...   -5.1223e-09  Tolerance :   1.0000e-08
  Last MAX-Density change    ...    1.8013e-04  Tolerance :   1.0000e-07
  Last RMS-Density change    ...    1.2884e-06  Tolerance :   5.0000e-09
  Last DIIS Error            ...    1.6040e-03  Tolerance :   5.0000e-07
  Last Orbital Gradient      ...    1.4571e-05  Tolerance :   1.0000e-05
  Last Orbital Rotation      ...    2.6693e-05  Tolerance :   1.0000e-05


----------------
ORBITAL ENERGIES
----------------

  NO   OCC          E(Eh)            E(eV) 
   0   2.0000     -19.195577      -522.3382 
   1   2.0000     -19.195151      -522.3266 
   2   2.0000     -19.157692      -521.3073 
   3   2.0000     -19.126293      -520.4529 
   4   2.0000     -19.118761      -520.2479 
   5   2.0000     -10.358379      -281.8658 
   6   2.0000     -10.258917      -279.1593 
   7   2.0000     -10.257999      -279.1343 
   8   2.0000     -10.234501      -278.4949 
   9   2.0000     -10.214349      -277.9466 
  10   2.0000     -10.199417      -277.5402 
  11   2.0000     -10.193262      -277.3728 
  12   2.0000     -10.186422      -277.1866 
  13   2.0000     -10.185741      -277.1681 
  14   2.0000     -10.176262      -276.9102 
  15   2.0000     -10.172980      -276.8208 
  16   2.0000     -10.171823      -276.7894 
  17   2.0000     -10.171207      -276.7726 
  18   2.0000     -10.167807      -276.6801 
  19   2.0000     -10.167198      -276.6635 
  20   2.0000     -10.166690      -276.6497 
  21   2.0000     -10.161877      -276.5187 
  22   2.0000     -10.157815      -276.4082 
  23   2.0000     -10.157456      -276.3984 
  24   2.0000     -10.154948      -276.3302 
  25   2.0000     -10.151027      -276.2235 
  26   2.0000      -1.174280       -31.9538 
  27   2.0000      -1.063021       -28.9263 
  28   2.0000      -1.062354       -28.9081 
  29   2.0000      -1.055890       -28.7322 
  30   2.0000      -1.028861       -27.9967 
  31   2.0000      -0.867845       -23.6153 
  32   2.0000      -0.844988       -22.9933 
  33   2.0000      -0.822239       -22.3742 
  34   2.0000      -0.795586       -21.6490 
  35   2.0000      -0.792709       -21.5707 
  36   2.0000      -0.770276       -20.9603 
  37   2.0000      -0.761989       -20.7348 
  38   2.0000      -0.732668       -19.9369 
  39   2.0000      -0.716355       -19.4930 
  40   2.0000      -0.695219       -18.9179 
  41   2.0000      -0.694152       -18.8888 
  42   2.0000      -0.667372       -18.1601 
  43   2.0000      -0.627222       -17.0676 
  44   2.0000      -0.622701       -16.9446 
  45   2.0000      -0.617380       -16.7998 
  46   2.0000      -0.589181       -16.0324 
  47   2.0000      -0.581602       -15.8262 
  48   2.0000      -0.575428       -15.6582 
  49   2.0000      -0.554031       -15.0759 
  50   2.0000      -0.549477       -14.9520 
  51   2.0000      -0.544904       -14.8276 
  52   2.0000      -0.536519       -14.5994 
  53   2.0000      -0.526740       -14.3333 
  54   2.0000      -0.520985       -14.1767 
  55   2.0000      -0.496789       -13.5183 
  56   2.0000      -0.486889       -13.2489 
  57   2.0000      -0.478472       -13.0199 
  58   2.0000      -0.470168       -12.7939 
  59   2.0000      -0.462340       -12.5809 
  60   2.0000      -0.460286       -12.5250 
  61   2.0000      -0.458071       -12.4647 
  62   2.0000      -0.453556       -12.3419 
  63   2.0000      -0.451337       -12.2815 
  64   2.0000      -0.442120       -12.0307 
  65   2.0000      -0.427513       -11.6332 
  66   2.0000      -0.426596       -11.6083 
  67   2.0000      -0.421646       -11.4736 
  68   2.0000      -0.418160       -11.3787 
  69   2.0000      -0.414336       -11.2747 
  70   2.0000      -0.401410       -10.9229 
  71   2.0000      -0.396691       -10.7945 
  72   2.0000      -0.394415       -10.7326 
  73   2.0000      -0.392525       -10.6812 
  74   2.0000      -0.391331       -10.6487 
  75   2.0000      -0.377458       -10.2712 
  76   2.0000      -0.374473       -10.1899 
  77   2.0000      -0.366972        -9.9858 
  78   2.0000      -0.357701        -9.7335 
  79   2.0000      -0.351871        -9.5749 
  80   2.0000      -0.346565        -9.4305 
  81   2.0000      -0.339864        -9.2482 
  82   2.0000      -0.334692        -9.1074 
  83   2.0000      -0.328580        -8.9411 
  84   2.0000      -0.323757        -8.8099 
  85   2.0000      -0.322698        -8.7811 
  86   2.0000      -0.316560        -8.6140 
  87   2.0000      -0.301130        -8.1942 
  88   2.0000      -0.288812        -7.8590 
  89   2.0000      -0.259344        -7.0571 
  90   2.0000      -0.255152        -6.9430 
  91   2.0000      -0.253028        -6.8852 
  92   2.0000      -0.223872        -6.0919 
  93   2.0000      -0.202302        -5.5049 
  94   0.0000      -0.029351        -0.7987 
  95   0.0000      -0.019339        -0.5262 
  96   0.0000      -0.006005        -0.1634 
  97   0.0000       0.007417         0.2018 
  98   0.0000       0.008450         0.2299 
  99   0.0000       0.015484         0.4213 
 100   0.0000       0.021040         0.5725 
 101   0.0000       0.029812         0.8112 
 102   0.0000       0.032100         0.8735 
 103   0.0000       0.038711         1.0534 
 104   0.0000       0.050204         1.3661 
*Only the first 10 virtual orbitals were printed.

                    ********************************
                    * MULLIKEN POPULATION ANALYSIS *
                    ********************************

-----------------------
MULLIKEN ATOMIC CHARGES
-----------------------
   0 O :   -0.426066
   1 O :   -0.435056
   2 C :    0.113587
   3 C :    0.011798
   4 C :    0.092460
   5 C :   -0.201940
   6 C :    0.104441
   7 C :   -0.256076
   8 C :    0.237468
   9 C :   -0.116280
  10 C :    0.249252
  11 C :   -0.253722
  12 C :   -0.178082
  13 C :   -0.138757
  14 C :   -0.276501
  15 C :   -0.229593
  16 C :   -0.125477
  17 C :   -0.087290
  18 C :   -0.284102
  19 C :   -0.267281
  20 H :    0.117716
  21 H :    0.125585
  22 H :    0.115193
  23 H :    0.123618
  24 H :    0.120527
  25 H :    0.095082
  26 H :    0.103762
  27 H :    0.089765
  28 H :    0.106091
  29 H :    0.100322
  30 H :    0.120139
  31 H :    0.100695
  32 H :    0.334780
  33 H :    0.326983
  34 H :    0.125886
  35 H :    0.121815
  36 H :    0.106536
  37 H :    0.100034
  38 H :    0.113800
  39 H :    0.121206
  40 O :   -0.251373
  41 C :   -0.018517
  42 C :   -0.023194
  43 C :    0.450788
  44 O :   -0.340501
  45 O :   -0.259880
  46 H :    0.119562
  47 H :    0.120796
Sum of atomic charges:   -0.0000000

[...]
      f+1     :     0.042991
      f-1     :     0.019093
      f+2     :     0.027535
      f-2     :     0.028211
      f+3     :     0.026655
      f-3     :     0.028238

 44 O s       :     3.389487  s :     3.389487
      pz      :     1.496627  p :     4.422219
      px      :     1.506672
      py      :     1.418920
      dz2     :     0.008972  d :     0.066012
      dxz     :     0.016653
      dyz     :     0.009494
      dx2y2   :     0.012973
      dxy     :     0.017920
      f0      :     0.000706  f :     0.006564
      f+1     :     0.000916
      f-1     :     0.000406
      f+2     :     0.000865
      f-2     :     0.001569
      f+3     :     0.000946
      f-3     :     0.001156

 45 O s       :     3.267907  s :     3.267907
      pz      :     1.516922  p :     4.351611
      px      :     1.295888
      py      :     1.538800
      dz2     :     0.016370  d :     0.104852
      dxz     :     0.030342
      dyz     :     0.011919
      dx2y2   :     0.026571
      dxy     :     0.019650
      f0      :     0.000741  f :     0.007369
      f+1     :     0.001358
      f-1     :     0.000535
      f+2     :     0.001698
      f-2     :     0.000919
      f+3     :     0.001143
      f-3     :     0.000975

 46 H s       :     0.815497  s :     0.815497
      pz      :     0.017187  p :     0.059363
      px      :     0.020066
      py      :     0.022109

 47 H s       :     0.812342  s :     0.812342
      pz      :     0.036634  p :     0.059407
      px      :     0.010530
      py      :     0.012242



                      *****************************
                      * MAYER POPULATION ANALYSIS *
                      *****************************

  NA   - Mulliken gross atomic population
  ZA   - Total nuclear charge
  QA   - Mulliken gross atomic charge
  VA   - Mayer's total valence
  BVA  - Mayer's bonded valence
  FA   - Mayer's free valence

  ATOM       NA         ZA         QA         VA         BVA        FA
  0 O      8.4202     8.0000    -0.4202     2.0598     2.0598     0.0000
  1 O      8.4402     8.0000    -0.4402     2.0046     2.0046     0.0000
  2 C      5.8908     6.0000     0.1092     3.3891     3.3891     0.0000
  3 C      5.9796     6.0000     0.0204     3.7507     3.7507     0.0000
  4 C      5.8887     6.0000     0.1113     3.4792     3.4792     0.0000
  5 C      6.2051     6.0000    -0.2051     3.9297     3.9297     0.0000
  6 C      5.8968     6.0000     0.1032     3.7488     3.7488     0.0000
  7 C      6.2510     6.0000    -0.2510     3.8279     3.8279     0.0000
  8 C      5.7635     6.0000     0.2365     3.9363     3.9363    -0.0000
  9 C      6.1249     6.0000    -0.1249     3.8852     3.8852    -0.0000
 10 C      5.7506     6.0000     0.2494     3.7732     3.7732     0.0000
 11 C      6.2658     6.0000    -0.2658     3.9250     3.9250     0.0000
 12 C      6.1789     6.0000    -0.1789     3.8727     3.8727    -0.0000
 13 C      6.1367     6.0000    -0.1367     3.9109     3.9109     0.0000
 14 C      6.2692     6.0000    -0.2692     3.8905     3.8905     0.0000
 15 C      6.2332     6.0000    -0.2332     4.0088     4.0088     0.0000
 16 C      6.1255     6.0000    -0.1255     3.7936     3.7936    -0.0000
 17 C      6.0868     6.0000    -0.0868     3.8386     3.8386     0.0000
 18 C      6.2832     6.0000    -0.2832     3.9126     3.9126     0.0000
 19 C      6.2670     6.0000    -0.2670     3.9376     3.9376    -0.0000
 20 H      0.8849     1.0000     0.1151     0.9805     0.9805     0.0000
 21 H      0.8775     1.0000     0.1225     0.9819     0.9819    -0.0000
 22 H      0.8856     1.0000     0.1144     0.9847     0.9847    -0.0000
 23 H      0.8726     1.0000     0.1274     0.9705     0.9705    -0.0000
 24 H      0.8816     1.0000     0.1184     0.9774     0.9774    -0.0000
 25 H      0.9048     1.0000     0.0952     0.9686     0.9686     0.0000
 26 H      0.8967     1.0000     0.1033     0.9695     0.9695     0.0000
 27 H      0.9105     1.0000     0.0895     0.9747     0.9747     0.0000
 28 H      0.8941     1.0000     0.1059     0.9878     0.9878    -0.0000
 29 H      0.9000     1.0000     0.1000     0.9931     0.9931     0.0000
 30 H      0.8806     1.0000     0.1194     0.9779     0.9779    -0.0000
 31 H      0.8997     1.0000     0.1003     0.9756     0.9756     0.0000
 32 H      0.6674     1.0000     0.3326     0.9408     0.9408     0.0000
 33 H      0.6737     1.0000     0.3263     0.9261     0.9261     0.0000
 34 H      0.8747     1.0000     0.1253     0.9758     0.9758     0.0000
 35 H      0.8793     1.0000     0.1207     0.9750     0.9750     0.0000
 36 H      0.8937     1.0000     0.1063     0.9742     0.9742    -0.0000
 37 H      0.9001     1.0000     0.0999     0.9778     0.9778    -0.0000
 38 H      0.8865     1.0000     0.1135     0.9805     0.9805    -0.0000
 39 H      0.8765     1.0000     0.1235     0.9670     0.9670     0.0000
 40 O      8.2537     8.0000    -0.2537     2.1425     2.1425     0.0000
 41 C      6.0288     6.0000    -0.0288     3.8770     3.8770     0.0000
 42 C      6.0102     6.0000    -0.0102     3.8522     3.8522     0.0000
 43 C      5.5448     6.0000     0.4552     4.3658     4.3658    -0.0000
 44 O      8.3376     8.0000    -0.3376     2.1511     2.1511    -0.0000
 45 O      8.2667     8.0000    -0.2667     2.1274     2.1274     0.0000
 46 H      0.8826     1.0000     0.1174     0.9548     0.9548     0.0000
 47 H      0.8774     1.0000     0.1226     0.9585     0.9585     0.0000

  Mayer bond orders larger than 0.100000
B(  0-O ,  8-C ) :   1.0983 B(  0-O , 32-H ) :   0.8341 B(  1-O , 10-C ) :   1.0308 
B(  1-O , 33-H ) :   0.8544 B(  2-C ,  3-C ) :   0.8527 B(  2-C ,  7-C ) :   1.2981 
B(  2-C ,  8-C ) :   1.2518 B(  3-C ,  5-C ) :   1.4278 B(  3-C ,  9-C ) :   1.3542 
B(  4-C ,  5-C ) :   1.3381 B(  4-C , 10-C ) :   1.2634 B(  4-C , 11-C ) :   0.8976 
B(  5-C , 20-H ) :   0.9575 B(  6-C ,  7-C ) :   1.3901 B(  6-C , 12-C ) :   0.9259 
B(  6-C , 13-C ) :   1.3637 B(  7-C , 21-H ) :   0.9666 B(  8-C , 15-C ) :   1.4318 
B(  9-C , 14-C ) :   1.3940 B(  9-C , 22-H ) :   0.9886 B( 10-C , 14-C ) :   1.3707 
B( 11-C , 16-C ) :   0.9554 B( 11-C , 23-H ) :   0.9816 B( 11-C , 24-H ) :   0.9667 
B( 12-C , 17-C ) :   0.9686 B( 12-C , 25-H ) :   0.9591 B( 12-C , 26-H ) :   0.9730 
B( 13-C , 15-C ) :   1.4216 B( 13-C , 27-H ) :   0.9800 B( 14-C , 28-H ) :   0.9969 
B( 15-C , 29-H ) :   0.9849 B( 16-C , 18-C ) :   1.8833 B( 16-C , 30-H ) :   0.9557 
B( 17-C , 19-C ) :   1.9278 B( 17-C , 31-H ) :   0.9542 B( 18-C , 34-H ) :   0.9680 
B( 18-C , 35-H ) :   0.9656 B( 19-C , 36-H ) :   0.9669 B( 19-C , 37-H ) :   0.9617 
B( 38-H , 42-C ) :   0.9556 B( 39-H , 41-C ) :   0.9541 B( 40-O , 41-C ) :   0.9242 
B( 40-O , 43-C ) :   1.1671 B( 41-C , 42-C ) :   0.9926 B( 41-C , 47-H ) :   0.9616 
B( 42-C , 45-O ) :   0.9124 B( 42-C , 46-H ) :   0.9592 B( 43-C , 44-O ) :   1.9864 
B( 43-C , 45-O ) :   1.1521 

-------
TIMINGS
-------

Total SCF time: 0 days 0 hours 0 min 29 sec 

Total time                  ....      29.066 sec
Sum of individual times     ....      28.900 sec  ( 99.4%)

SCF preparation             ....       0.823 sec  (  2.8%)
Fock matrix formation       ....      25.087 sec  ( 86.3%)
  Startup                   ....       0.070 sec  (  0.3% of F)
  Split-RI-J                ....       1.858 sec  (  7.4% of F)
  Chain of spheres X        ....      21.106 sec  ( 84.1% of F)
  XC integration            ....       1.859 sec  (  7.4% of F)
    Basis function eval.    ....       0.430 sec  ( 23.1% of XC)
    Density eval.           ....       0.556 sec  ( 29.9% of XC)
    XC-Functional eval.     ....       0.029 sec  (  1.6% of XC)
    XC-Potential eval.      ....       0.557 sec  ( 29.9% of XC)
Diagonalization             ....       0.000 sec  (  0.0%)
Density matrix formation    ....       0.203 sec  (  0.7%)
Total Energy calculation    ....       0.240 sec  (  0.8%)
Population analysis         ....       0.273 sec  (  0.9%)
Orbital Transformation      ....       0.825 sec  (  2.8%)
Orbital Orthonormalization  ....       0.000 sec  (  0.0%)
DIIS solution               ....       0.340 sec  (  1.2%)
SOSCF solution              ....       1.108 sec  (  3.8%)
Finished LeanSCF after  29.3 sec

Maximum memory used throughout the entire LEANSCF-calculation: 157.1 MB


-------------------------------------------------------------------------------
                          DFT DISPERSION CORRECTION                            
                                                                               
                              DFTD3 V3.1  Rev 1                                
                          USING Becke-Johnson damping                          
-------------------------------------------------------------------------------
The B3LYP functional is recognized
Active option DFTDOPT                   ...         4   

molecular C6(AA) [au] = 24631.332131 


            DFT-D V3
 parameters
 s6 scaling factor         :     1.0000 
 a1 scaling factor         :     0.3981 
 s8 scaling factor         :     1.9889 
 a2 scaling factor         :     4.4211 
 ad hoc parameters k1-k3   :    16.0000     1.3333    -4.0000 

 Edisp/kcal,au: -66.308395686744  -0.105669143422 
 E6   /kcal   : -31.722381065 
 E8   /kcal   : -34.586014622 
 % E8         :  52.159329545 

-------------------------   ----------------
Dispersion correction           -0.105669143
-------------------------   ----------------


-------------------------   --------------------
FINAL SINGLE POINT ENERGY     -1189.452260598934
-------------------------   --------------------

                                *** OPTIMIZATION RUN DONE ***

--------------------------------------------------------------------------
WARNING: There was an error initializing an OpenFabrics device.

  Local host:   ga00
  Local device: mlx5_0
--------------------------------------------------------------------------


           ************************************************************
           *        Program running with 25 parallel MPI-processes    *
           *              working on a common directory               *
           ************************************************************

------------------------------------------------------------------------------
                              ORCA PROPERTY CALCULATIONS
------------------------------------------------------------------------------

GBWName                                 ... honokiol3_EC.gbw
Number of atoms                         ...     48
Number of basis functions               ...    938
Max core memory                         ...   5000 MB

Electric properties:
Dipole moment                           ... YES
Quadrupole moment                       ...  NO
Static polarizability (Dipole/Dipole)   ...  NO
Static polarizability (Dipole/Quad.)    ...  NO
Static polarizability (Quad./Quad.)     ...  NO
Static polarizability (Velocity)        ...  NO

Atomic electric properties:
Dipole moment                           ...  NO
Quadrupole moment                       ...  NO
Static polarizability                   ...  NO

Choice of electric origin               ... Center of mass
Position of electric origin             ...    -1.319666    -0.697622     1.916818

General magnetic properties:
Magnetizability                         ...  NO

EPR properties:
g-Tensor (aka g-matrix)                 ...  NO
Zero-Field splitting spin-orbit         ...  NO
Zero-field splitting spin-spin          ...  NO
Hyperfine couplings                     ...  NO (   0 nuclei)
Quadrupole couplings                    ...  NO (   0 nuclei)
Contact density                         ...  NO (   0 nuclei)

NMR properties:
Chemical shifts                         ...  NO (   0 nuclei)
Spin-rotation constants                 ...  NO (   0 nuclei)
Spin-spin couplings                     ...  NO (   0 nuclei,    0 pairs)

Choice of magnetic origin               ... GIAO
Position of magnetic origin             ...     0.000000     0.000000     0.000000

Properties with geometric perturbations:
SCF Hessian                             ...  NO
IR spectrum                             ...  NO
VCD spectrum                            ...  NO
X-ray spectroscopy properties:
SCF XES/XAS/RIXS spectra                ...  NO


-------------
DIPOLE MOMENT
-------------

Method             : SCF
Type of density    : Electron Density
Multiplicity       :   1
Irrep              :   0
Energy             : -1189.3465914555115432 Eh
Relativity type    : 
Basis              : AO
                                X                 Y                 Z
Electronic contribution:      3.024400127       5.638805658      15.406815121
Nuclear contribution   :     -5.476391073      -6.590864232     -14.994433666
                        -----------------------------------------
Total Dipole Moment    :     -2.451990946      -0.952058573       0.412381456
                        -----------------------------------------
Magnitude (a.u.)       :      2.662467575
Magnitude (Debye)      :      6.767454758



--------------------
Rotational spectrum 
--------------------
 
Rotational constants in cm-1:             0.010065             0.004372             0.003363 
Rotational constants in MHz :           301.735051           131.059187           100.815963 

Dipole components along the rotational axes: 
x,y,z [a.u.] :    -2.378891    -1.194650    -0.049216 
x,y,z [Debye]:    -6.046660    -3.036559    -0.125097 

 

Dipole moment calculation done in   0.1 sec 

Maximum memory used throughout the entire PROP-calculation: 87.4 MB
[ga00:222240] 24 more processes have sent help message help-mpi-btl-openib.txt / error in device init
[ga00:222240] Set MCA parameter "orte_base_help_aggregate" to 0 to see all help / error messages
--------------------------------------------------------------------------
WARNING: There was an error initializing an OpenFabrics device.

  Local host:   ga00
  Local device: mlx5_0
--------------------------------------------------------------------------
--------------------------------------------------------------------------
WARNING: There is at least one non-excluded one OpenFabrics device found,
but there are no active ports detected (or Open MPI was unable to use
them).  This is most certainly not what you wanted.  Check your
cables, subnet manager configuration, etc.  The openib BTL will be
ignored for this job.

  Local host: ga00
--------------------------------------------------------------------------
[ga00:222356] 23 more processes have sent help message help-mpi-btl-openib.txt / error in device init
[ga00:222356] Set MCA parameter "orte_base_help_aggregate" to 0 to see all help / error messages

--------------------------------
SUGGESTED CITATIONS FOR THIS RUN
--------------------------------

Below you find a list of papers that are relevant to this ORCA run
We neither can nor want to force you to cite these papers, but we appreciate if you do
You receive ORCA, which is the product of decades of hard work by many enthusiastic individuals, for free
The only thing we kindly ask in return is that you cite our papers,
We deeply appreciate it, if you show your appreciation for ORCA by not just citing the generic ORCA reference.

Please note that relegating all ORCA citations to the supporting information does *not* help us.
SI sections are not indexed - citations you put there will not count into any citation statistics
But we need these citations in order to attract the funding resources that allow us to do what we are doing

Therefore, if you are a happy ORCA user, please consider citing a few of the papers listed below in the main body of your paper

In addition to the list printed below, the program has created the file honokiol3_EC.bibtex that contains the list in bibtex format
You can import this file easily into all common literature databanks and citation aid programs


List of essential papers. We consider these as the minimum necessary citations

  1. Neese,F.
     Software update: the ORCA program system, version 5.0
     WIRES Comput. Molec. Sci., 2022 12(1)e1606
     doi.org/10.1002/wcms.1606

List of papers to cite with high priority. The work reported in these papers was absolutely
necessary for this run to complete.
Our perspective: the developers of density functionals and basis sets usually get cited in chemistry papers
Good! But without the algorithms to do something with them, the functionals or basis sets would not do anything.
Hence, in our opinion, the algorithm design and method developments papers are equally worthy of getting cited

  1. Neese,F.
     An improvement of the resolution of the identity approximation for the formation of the Coulomb matrix
     J. Comp. Chem., 2003 24(14)1740-1747
     doi.org/10.1002/jcc.10318
  2. Neese,F.; Wennmohs,F.; Hansen,A.; Becker,U.
     Efficient, approximate and parallel Hartree-Fock and hybrid DFT calculations. A 'chain-of-spheres' algorithm for the Hartree-Fock exchange
     Chem. Phys., 2009 356(1-3)98-109
     doi.org/10.1016/j.chemphys.2008.10.036
  3. Helmich-Paris,B.; de Souza,B.; Neese,F.; Izsák,R.
     An improved chain of spheres for exchange algorithm
     J. Chem. Phys., 2021 155 104109
     doi.org/doi: 10.1063/5.0058766.
  4. Neese,F.
     The SHARK Integral Generation and Digestion System
     J. Comp. Chem., 2022  1-16
     doi.org/10.1002/jcc.26942
  5. Grimme,S.; Antony,J.; Ehrlich,S.; Krieg,H.
     A consistent and accurate ab initio parametrization of density functional dispersion correction (DFT-D) for the 94 elements H-Pu
     J. Chem. Phys., 2010 132 154104
     doi.org/10.1063/1.3382344
  6. Grimme,S.; Ehrlich,S.; Goerigk,L.
     Effect of the damping function in dispersion corrected density functional theory
     J. Comput. Chem., 2011 32(7)1456-1465
     doi.org/10.1002/jcc.21759

List of suggested additional citations. These are papers that are important in the 'surrounding' of 
of this run, or papers that preceded the highly important papers. If you like your results we are grateful for a citation.

  1. Izsak,R.; Neese,F.
     An overlap fitted chain of spheres exchange method
     J. Chem. Phys., 2011 135 144105
     doi.org/10.1063/1.3646921
  2. Izsak,R.; Hansen,A.; Neese,F.
     The resolution of identity and chain of spheres approximations for the LPNO-CCSD singles Fock term
     Molec. Phys., 2012 110 2413-2417
     doi.org/10.1080/00268976.2012.687466
  3. Neese,F.
     The ORCA program system
     WIRES Comput. Molec. Sci., 2012 2(1)73-78
     doi.org/10.1002/wcms.81
  4. Izsak,R.; Neese,F.; Klopper,W.
     Robust fitting techniques in the chain of spheres approximation to the Fock exchange: The role of the complementary space
     J. Chem. Phys., 2013 139 
     doi.org/10.1063/1.4819264
  5. Neese,F.
     Software update: the ORCA program system, version 4.0
     WIRES Comput. Molec. Sci., 2018 8(1)1-6
     doi.org/10.1002/wcms.1327
  6. Neese,F.; Wennmohs,F.; Becker,U.; Riplinger,C.
     The ORCA quantum chemistry program package
     J. Chem. Phys., 2020 152 Art. No. L224108
     doi.org/10.1063/5.0004608

List of optional additional citations

  1. Neese,F.
     Approximate second-order SCF convergence for spin unrestricted wavefunctions
     Chem. Phys. Lett., 2000 325(1-3)93-98
     doi.org/10.1016/s0009-2614(00)00662-x

Timings for individual modules:

Sum of individual times          ...     1267.975 sec (=  21.133 min)
Startup calculation              ...       83.579 sec (=   1.393 min)   6.6 %
SCF iterations                   ...      836.402 sec (=  13.940 min)  66.0 %
Property calculations            ...        1.077 sec (=   0.018 min)   0.1 %
SCF Gradient evaluation          ...      346.557 sec (=   5.776 min)  27.3 %
Geometry relaxation              ...        0.359 sec (=   0.006 min)   0.0 %
                             ****ORCA TERMINATED NORMALLY****
TOTAL RUN TIME: 0 days 0 hours 21 minutes 27 seconds 28 msec
