[Molden Format]
[Title]
 Molden file created by orca_2mkl for BaseName=DMC

[Atoms] AU
O    1   8         -2.0386750018        -1.2935410669        -0.0006255084 
O    2   8          2.0386444237        -1.2935859571        -0.0006288252 
O    3   8          0.0000265932         2.4704779538        -0.0009565939 
C    4   6          0.0000011263         0.1844371040        -0.0007840260 
C    5   6         -4.4487265224        -0.0146372499        -0.0007175601 
C    6   6          4.4487232013        -0.0147357455        -0.0007236298 
H    7   1         -4.6371422390         1.1493285724         1.6856319192 
H    8   1         -5.8532643481        -1.5108647135        -0.0005735907 
H    9   1         -4.6371685093         1.1490312440        -1.6872690425 
H   10   1          5.8532282657        -1.5109930279        -0.0006064863 
H   11   1          4.6371764484         1.1492075630         1.6856361167 
H   12   1          4.6371765621         1.1489455515        -1.6872644858 
[GTO]
  1 0
s   6 1.0 
    27032.3826310000         0.8598581479
     4052.3871392000         1.6055305368
      922.3272271000         2.7458778516
      261.2407098900         4.2987674426
       85.3546413510         5.8797663284
       31.0350352450         6.3163983216
s   2 1.0 
       12.2608607280         2.9812147522
        4.9987076005         0.9419559635
s   1 1.0 
        1.1703108158         0.8019291610
s   1 1.0 
        0.4647474099         0.4011648062
s   1 1.0 
        0.1850453636         0.2010799406
p   4 1.0 
       63.2749548010         3.0572017144
       14.6270493790         3.3844839414
        4.4501223456         2.9474262132
        1.5275799647         1.7118271494
p   1 1.0 
        0.5293511794         0.6436057926
p   1 1.0 
        0.1747842127         0.1610897254
d   1 1.0 
        2.3140000000        12.3767310624
d   1 1.0 
        0.6450000000         1.3234257612
f   1 1.0 
        1.4280000000        12.7097950062

  2 0
s   6 1.0 
    27032.3826310000         0.8598581479
     4052.3871392000         1.6055305368
      922.3272271000         2.7458778516
      261.2407098900         4.2987674426
       85.3546413510         5.8797663284
       31.0350352450         6.3163983216
s   2 1.0 
       12.2608607280         2.9812147522
        4.9987076005         0.9419559635
s   1 1.0 
        1.1703108158         0.8019291610
s   1 1.0 
        0.4647474099         0.4011648062
s   1 1.0 
        0.1850453636         0.2010799406
p   4 1.0 
       63.2749548010         3.0572017144
       14.6270493790         3.3844839414
        4.4501223456         2.9474262132
        1.5275799647         1.7118271494
p   1 1.0 
        0.5293511794         0.6436057926
p   1 1.0 
        0.1747842127         0.1610897254
d   1 1.0 
        2.3140000000        12.3767310624
d   1 1.0 
        0.6450000000         1.3234257612
f   1 1.0 
        1.4280000000        12.7097950062

  3 0
s   6 1.0 
    27032.3826310000         0.8598581479
     4052.3871392000         1.6055305368
      922.3272271000         2.7458778516
      261.2407098900         4.2987674426
       85.3546413510         5.8797663284
       31.0350352450         6.3163983216
s   2 1.0 
       12.2608607280         2.9812147522
        4.9987076005         0.9419559635
s   1 1.0 
        1.1703108158         0.8019291610
s   1 1.0 
        0.4647474099         0.4011648062
s   1 1.0 
        0.1850453636         0.2010799406
p   4 1.0 
       63.2749548010         3.0572017144
       14.6270493790         3.3844839414
        4.4501223456         2.9474262132
        1.5275799647         1.7118271494
p   1 1.0 
        0.5293511794         0.6436057926
p   1 1.0 
        0.1747842127         0.1610897254
d   1 1.0 
        2.3140000000        12.3767310624
d   1 1.0 
        0.6450000000         1.3234257612
f   1 1.0 
        1.4280000000        12.7097950062

  4 0
s   6 1.0 
    13575.3496820000         0.5435905310
     2035.2333680000         1.0145543947
      463.2256235900         1.7315731970
      131.2001959800         2.6910376290
       42.8530158910         3.6044547126
       15.5841857660         3.7025556986
s   2 1.0 
        6.2067138508         1.8383540830
        2.5764896527         0.5447575605
s   1 1.0 
        0.5769633942         0.4718145038
s   1 1.0 
        0.2297283136         0.2364944676
s   1 1.0 
        0.0951644400         0.1221141848
p   4 1.0 
       34.6972322440         1.3596651507
        7.9582622826         1.4512589486
        2.3780826883         1.2709231419
        0.8143320818         0.8025721189
p   1 1.0 
        0.2888754725         0.3018758868
p   1 1.0 
        0.1005682367         0.0807265016
d   1 1.0 
        1.0970000000         3.3522135855
d   1 1.0 
        0.3180000000         0.3838994974
f   1 1.0 
        0.7610000000         3.0840084332

  5 0
s   6 1.0 
    13575.3496820000         0.5435905310
     2035.2333680000         1.0145543947
      463.2256235900         1.7315731970
      131.2001959800         2.6910376290
       42.8530158910         3.6044547126
       15.5841857660         3.7025556986
s   2 1.0 
        6.2067138508         1.8383540830
        2.5764896527         0.5447575605
s   1 1.0 
        0.5769633942         0.4718145038
s   1 1.0 
        0.2297283136         0.2364944676
s   1 1.0 
        0.0951644400         0.1221141848
p   4 1.0 
       34.6972322440         1.3596651507
        7.9582622826         1.4512589486
        2.3780826883         1.2709231419
        0.8143320818         0.8025721189
p   1 1.0 
        0.2888754725         0.3018758868
p   1 1.0 
        0.1005682367         0.0807265016
d   1 1.0 
        1.0970000000         3.3522135855
d   1 1.0 
        0.3180000000         0.3838994974
f   1 1.0 
        0.7610000000         3.0840084332

  6 0
s   6 1.0 
    13575.3496820000         0.5435905310
     2035.2333680000         1.0145543947
      463.2256235900         1.7315731970
      131.2001959800         2.6910376290
       42.8530158910         3.6044547126
       15.5841857660         3.7025556986
s   2 1.0 
        6.2067138508         1.8383540830
        2.5764896527         0.5447575605
s   1 1.0 
        0.5769633942         0.4718145038
s   1 1.0 
        0.2297283136         0.2364944676
s   1 1.0 
        0.0951644400         0.1221141848
p   4 1.0 
       34.6972322440         1.3596651507
        7.9582622826         1.4512589486
        2.3780826883         1.2709231419
        0.8143320818         0.8025721189
p   1 1.0 
        0.2888754725         0.3018758868
p   1 1.0 
        0.1005682367         0.0807265016
d   1 1.0 
        1.0970000000         3.3522135855
d   1 1.0 
        0.3180000000         0.3838994974
f   1 1.0 
        0.7610000000         3.0840084332

  7 0
s   3 1.0 
       34.0613410000         0.2556299169
        5.1235746000         0.4613599649
        1.1646626000         0.6811214941
s   1 1.0 
        0.3272304100         0.3083545312
s   1 1.0 
        0.1030724100         0.1296483265
p   1 1.0 
        0.8000000000         1.0784563492

  8 0
s   3 1.0 
       34.0613410000         0.2556299169
        5.1235746000         0.4613599649
        1.1646626000         0.6811214941
s   1 1.0 
        0.3272304100         0.3083545312
s   1 1.0 
        0.1030724100         0.1296483265
p   1 1.0 
        0.8000000000         1.0784563492

  9 0
s   3 1.0 
       34.0613410000         0.2556299169
        5.1235746000         0.4613599649
        1.1646626000         0.6811214941
s   1 1.0 
        0.3272304100         0.3083545312
s   1 1.0 
        0.1030724100         0.1296483265
p   1 1.0 
        0.8000000000         1.0784563492

 10 0
s   3 1.0 
       34.0613410000         0.2556299169
        5.1235746000         0.4613599649
        1.1646626000         0.6811214941
s   1 1.0 
        0.3272304100         0.3083545312
s   1 1.0 
        0.1030724100         0.1296483265
p   1 1.0 
        0.8000000000         1.0784563492

 11 0
s   3 1.0 
       34.0613410000         0.2556299169
        5.1235746000         0.4613599649
        1.1646626000         0.6811214941
s   1 1.0 
        0.3272304100         0.3083545312
s   1 1.0 
        0.1030724100         0.1296483265
p   1 1.0 
        0.8000000000         1.0784563492

 12 0
s   3 1.0 
       34.0613410000         0.2556299169
        5.1235746000         0.4613599649
        1.1646626000         0.6811214941
s   1 1.0 
        0.3272304100         0.3083545312
s   1 1.0 
        0.1030724100         0.1296483265
p   1 1.0 
        0.8000000000         1.0784563492

[5D]
[7F]
[9G]
[MO]
 Sym=     1a
 Ene= -1.91799094448229E+01
 Spin= Alpha
 Occup= 2.000000
  1      -0.307888089826
  2      -0.452412322634
  3      -0.026869624685
  4       0.024291682090
  5      -0.004615075771
  6      -0.000071337783
  7      -0.001543432654
  8       0.000000153894
  9       0.000988316997
 10       0.004578827526
 11      -0.000000457777
 12      -0.001568322989
 13       0.000271255280
 14      -0.000000015347
 15       0.000159392567
 16      -0.000000004856
 17       0.000000016800
 18      -0.000136343632
 19      -0.000039471315
 20      -0.001064850717
 21      -0.000000055832
 22      -0.000000114736
 23       0.000740493560
 24       0.000302879334
 25       0.000000024016
 26       0.000088989063
 27      -0.000109939158
 28      -0.000000012393
 29      -0.000000007484
 30       0.000142864284
 31      -0.000284731548
 32       0.307460858319
 33       0.451784502095
 34       0.026833023350
 35      -0.024261950461
 36       0.004607905965
 37      -0.000071063672
 38       0.001541587314
 39      -0.000000153161
 40       0.000986982339
 41      -0.004574589054
 42       0.000000453985
 43      -0.001568498758
 44      -0.000270994986
 45       0.000000017354
 46      -0.000159192677
 47       0.000000010718
 48      -0.000000014964
 49       0.000136077212
 50      -0.000039400000
 51       0.001063249736
 52      -0.000000065476
 53       0.000000111945
 54      -0.000738714702
 55       0.000302524480
 56      -0.000000024025
 57       0.000089054286
 58       0.000109806597
 59       0.000000013968
 60      -0.000000008257
 61       0.000142816780
 62       0.000284444885
 63       0.000000014744
 64       0.000000028874
 65       0.000000150371
 66      -0.000001604433
 67      -0.000000010873
 68      -0.000101223245
 69       0.000000029944
 70       0.000000000011
 71       0.001037718401
 72       0.000000715038
 73       0.000000000091
 74       0.001735450101
 75       0.000000373765
 76       0.000000002612
 77       0.000000053430
 78       0.000000019579
 79       0.000000006999
 80       0.000000013998
 81       0.000077385146
 82      -0.000000133809
 83       0.000000015365
 84      -0.000000006158
 85       0.000000162557
 86      -0.000679302608
 87      -0.000000000744
 88       0.000026843964
 89       0.000000036325
 90      -0.000000001072
 91       0.000000001171
 92       0.000068453853
 93       0.000000026937
 94      -0.000000036849
 95       0.000000204072
 96       0.000000623433
 97      -0.000004597355
 98       0.000001152866
 99       0.000145741643
100       0.000000068243
101      -0.000000000245
102       0.008841128204
103       0.000005219915
104      -0.000000014255
105      -0.006278867546
106      -0.000001773659
107       0.000000005925
108       0.000000279635
109       0.000000071488
110      -0.000000000048
111      -0.000000195642
112      -0.000594751629
113       0.000001308031
114       0.000000639340
115       0.000000005395
116      -0.000001331911
117      -0.006643253916
118       0.000000003098
119      -0.000631623228
120      -0.000000423709
121       0.000000000952
122      -0.000000081964
123      -0.000289846283
124      -0.000000078970
125      -0.000010085114
126       0.000050082417
127       0.001675886232
128      -0.005882213946
129       0.001516274332
130       0.000248776168
131      -0.000107258980
132       0.000000006353
133      -0.003739454299
134       0.002271091070
135      -0.000000177304
136      -0.001110365225
137      -0.000092080247
138       0.000000037247
139       0.000161370590
140      -0.000000023835
141       0.000000006532
142      -0.000141032912
143       0.000253899876
144       0.001398478060
145      -0.000000056885
146       0.000000085903
147      -0.001229309881
148       0.001311201096
149       0.000000019123
150       0.000361672445
151      -0.000147225158
152      -0.000000011322
153       0.000000040826
154       0.000144340747
155      -0.000473880751
156       0.000010065773
157      -0.000049989012
158      -0.001675784165
159       0.005882102532
160      -0.001513527730
161       0.000248888015
162       0.000107216112
163      -0.000000002764
164      -0.003735048879
165      -0.002269286126
166       0.000000132613
167      -0.001111464148
168       0.000092482346
169      -0.000000035492
170      -0.000161086871
171      -0.000000025508
172      -0.000000008884
173       0.000140755751
174       0.000253525914
175      -0.001397498916
176      -0.000000072333
177      -0.000000117261
178       0.001228235618
179       0.001308228305
180      -0.000000026117
181       0.000361023528
182       0.000147771095
183       0.000000026844
184       0.000000030078
185       0.000145088528
186       0.000473523750
187      -0.000044359183
188      -0.000316170026
189      -0.000802710979
190       0.000025368046
191      -0.000021843181
192      -0.000032960049
193       0.000005686830
194       0.000414012976
195      -0.001002545538
196       0.000258367569
197       0.000049107800
198      -0.000000008557
199      -0.000044369258
200      -0.000316185159
201      -0.000802728877
202       0.000025381376
203      -0.000021833374
204       0.000032949677
205      -0.000006227506
206      -0.000416552241
207       0.001003138107
208       0.000258822894
209      -0.000049740759
210      -0.000000000231
211       0.000044121343
212       0.000314875576
213       0.000802209959
214       0.000025452396
215       0.000022019199
216       0.000033301343
217       0.000044115914
218       0.000314808352
219       0.000802241971
220       0.000025462259
221       0.000022020326
222      -0.000033314810
 Sym=     1a
 Ene= -1.91798990580189E+01
 Spin= Alpha
 Occup= 2.000000
  1       0.307458541446
  2       0.451808462600
  3       0.026374327119
  4      -0.021207990036
  5       0.004656532052
  6       0.000147466289
  7       0.001364926593
  8      -0.000000129921
  9      -0.000671086934
 10      -0.003164086805
 11       0.000000288802
 12       0.000036968400
 13      -0.000330861006
 14       0.000000015615
 15      -0.000242071786
 16      -0.000000022740
 17      -0.000000015651
 18       0.000237392532
 19       0.000023007931
 20       0.001285326606
 21       0.000000042895
 22       0.000000087694
 23      -0.001262198224
 24      -0.000069162871
 25      -0.000000025220
 26       0.000028388404
 27       0.000112669120
 28       0.000000007446
 29       0.000000007286
 30       0.000023411726
 31       0.000218475747
 32       0.307885775035
 33       0.452436256163
 34       0.026411462558
 35      -0.021241564269
 36       0.004664579520
 37      -0.000147549189
 38       0.001366999496
 39      -0.000000129345
 40       0.000672417043
 41      -0.003170077067
 42       0.000000286634
 43      -0.000038809292
 44      -0.000330611387
 45       0.000000021654
 46      -0.000242152315
 47       0.000000005629
 48      -0.000000017047
 49       0.000237521790
 50      -0.000023116193
 51       0.001286559855
 52      -0.000000024713
 53       0.000000088359
 54      -0.001263265520
 55       0.000069835302
 56      -0.000000025091
 57      -0.000028292139
 58       0.000112792451
 59       0.000000006661
 60      -0.000000005139
 61      -0.000023130203
 62       0.000218842675
 63      -0.000024483362
 64      -0.000042557673
 65      -0.000271696815
 66       0.002561077657
 67      -0.000408462296
 68      -0.000000058005
 69      -0.000059841052
 70       0.000000004686
 71       0.000000601528
 72      -0.001047040426
 73       0.000000079526
 74       0.000001423488
 75      -0.000450255114
 76       0.000000077409
 77      -0.000108705083
 78       0.000000004384
 79       0.000000001582
 80      -0.000003014444
 81       0.000000061411
 82       0.000220351667
 83      -0.000000001813
 84      -0.000000004371
 85      -0.000281476160
 86      -0.000000458998
 87       0.000000013391
 88       0.000000015236
 89      -0.000055942285
 90       0.000000004529
 91      -0.000000000158
 92       0.000000036418
 93      -0.000054850166
 94       0.000051990945
 95      -0.000292328402
 96      -0.000802405706
 97       0.006527813273
 98      -0.001337221140
 99       0.000000114813
100      -0.000097838165
101       0.000000013218
102       0.000005701414
103      -0.007481274672
104       0.000000726889
105      -0.000004946243
106       0.002640699527
107      -0.000000264739
108      -0.000405400837
109      -0.000000000120
110      -0.000000045064
111       0.000287994899
112      -0.000000439649
113      -0.001738312981
114      -0.000000001999
115      -0.000000225398
116       0.001593084003
117      -0.000004435778
118      -0.000000149091
119      -0.000000417264
120       0.000619906962
121      -0.000000073041
122      -0.000000000642
123      -0.000000159415
124       0.000034665958
125       0.000025303184
126      -0.000126754155
127      -0.000843181072
128       0.003965930777
129      -0.003754036560
130      -0.000004506976
131       0.000036482299
132      -0.000000004171
133       0.002701979389
134      -0.001586499495
135       0.000000094756
136      -0.000604100858
137      -0.000267260853
138       0.000000047892
139      -0.000203892413
140       0.000000011288
141      -0.000000016349
142       0.000178689836
143      -0.000224369631
144      -0.000809078001
145       0.000000138622
146      -0.000000067926
147       0.000681448663
148      -0.001523469867
149      -0.000000034762
150      -0.000314443060
151       0.000166012350
152       0.000000030686
153      -0.000000022609
154      -0.000005649478
155       0.000418668231
156       0.000025298541
157      -0.000126748748
158      -0.000844363361
159       0.003968294524
160      -0.003753453087
161       0.000004727827
162       0.000036602833
163      -0.000000009029
164      -0.002707792440
165      -0.001589068762
166       0.000000147285
167       0.000602704604
168      -0.000267168402
169       0.000000028277
170      -0.000204113461
171      -0.000000011563
172      -0.000000014098
173       0.000178927899
174       0.000224781101
175      -0.000810910403
176      -0.000000130313
177      -0.000000033015
178       0.000683429085
179       0.001526013970
180      -0.000000030769
181       0.000315164517
182       0.000165414727
183       0.000000016983
184       0.000000036282
185       0.000005152153
186       0.000419090775
187       0.000011428838
188       0.000172865265
189       0.000836662795
190      -0.000020814203
191       0.000070552624
192       0.000050335460
193       0.000062912888
194       0.000137094035
195       0.000339676338
196      -0.000205293100
197       0.000057765001
198      -0.000000007235
199       0.000011418808
200       0.000172820902
201       0.000836686005
202      -0.000020803486
203       0.000070551600
204      -0.000050364143
205       0.000063357654
206       0.000138847806
207       0.000340010018
208       0.000204905060
209       0.000058236481
210      -0.000000000673
211       0.000011714302
212       0.000174425593
213       0.000837144014
214       0.000020733585
215       0.000070298332
216       0.000049961206
217       0.000011720896
218       0.000174468798
219       0.000837124315
220       0.000020729421
221       0.000070288176
222      -0.000049963900
 Sym=     1a
 Ene= -1.91196199087864E+01
 Spin= Alpha
 Occup= 2.000000
  1      -0.000019364320
  2      -0.000019804776
  3       0.000142410060
  4      -0.001162847452
  5      -0.000738451376
  6      -0.000064484438
  7       0.000024874212
  8      -0.000000005328
  9      -0.000156372906
 10      -0.000762003520
 11       0.000000076859
 12       0.001514259685
 13      -0.001602619834
 14       0.000000066883
 15       0.000063958480
 16       0.000000009743
 17       0.000000004684
 18      -0.000062468224
 19      -0.000012734633
 20      -0.000119407961
 21      -0.000000009630
 22       0.000000015841
 23       0.000326799804
 24      -0.000162973821
 25       0.000000018548
 26      -0.000071598338
 27      -0.000048208584
 28       0.000000001237
 29      -0.000000011674
 30      -0.000033997944
 31       0.000068318740
 32      -0.000019367766
 33      -0.000019804419
 34       0.000142336058
 35      -0.001162567799
 36      -0.000738442266
 37       0.000064510345
 38       0.000024858602
 39      -0.000000006890
 40       0.000156181078
 41      -0.000761935059
 42       0.000000082859
 43      -0.001514420542
 44      -0.001602568339
 45       0.000000072574
 46       0.000063894100
 47      -0.000000009004
 48       0.000000004326
 49      -0.000062411763
 50       0.000012733898
 51      -0.000119380460
 52       0.000000004414
 53       0.000000019760
 54       0.000326854986
 55       0.000162953562
 56       0.000000012355
 57       0.000071635681
 58      -0.000048094563
 59       0.000000009328
 60       0.000000003844
 61       0.000034073805
 62       0.000068184334
 63      -0.435080573310
 64      -0.639492981166
 65      -0.036610841461
 66       0.031276353696
 67      -0.012551516505
 68       0.000000028470
 69       0.002264982515
 70      -0.000000166346
 71      -0.000000063079
 72      -0.006566863614
 73       0.000000490048
 74       0.000000006619
 75       0.000927936312
 76      -0.000000072003
 77       0.000106323946
 78       0.000000000088
 79       0.000000035752
 80       0.000311145698
 81      -0.000000010720
 82      -0.000629173223
 83      -0.000000000581
 84      -0.000000185619
 85      -0.001420583032
 86       0.000000005523
 87      -0.000000021685
 88      -0.000000003150
 89       0.000119215443
 90      -0.000000028096
 91       0.000000000670
 92       0.000000013917
 93      -0.000143644320
 94      -0.000032405078
 95       0.000208964936
 96      -0.000417675681
 97      -0.005370652418
 98       0.003468497040
 99      -0.000000013014
100      -0.000775346257
101       0.000000051738
102      -0.000000248001
103      -0.008040693104
104       0.000000663688
105       0.000000112140
106       0.005863893675
107      -0.000000438966
108       0.000230579613
109      -0.000000000967
110       0.000000053632
111       0.000339385369
112       0.000000007466
113       0.001512819100
114      -0.000000007354
115       0.000000564969
116       0.004962367824
117       0.000000010947
118      -0.000000060298
119       0.000000007821
120       0.000260938512
121       0.000000008209
122       0.000000005737
123      -0.000000093057
124       0.000269566367
125      -0.000007167769
126       0.000034743550
127      -0.000339360203
128       0.001057995245
129       0.003153412749
130      -0.000158739030
131       0.000017263212
132      -0.000000003487
133       0.000681486501
134      -0.000362571716
135       0.000000052825
136       0.000132754468
137       0.000017809818
138       0.000000010643
139       0.000032775034
140       0.000000002661
141       0.000000010214
142      -0.000031296041
143      -0.000038418645
144      -0.000200083323
145      -0.000000006984
146      -0.000000008894
147       0.000202854683
148       0.000177271271
149       0.000000004352
150       0.000015368613
151      -0.000015450759
152       0.000000001163
153       0.000000007417
154      -0.000031433460
155       0.000008501432
156      -0.000007168583
157       0.000034747901
158      -0.000339370378
159       0.001058065369
160       0.003153369283
161       0.000158742356
162       0.000017262589
163      -0.000000003321
164      -0.000681436400
165      -0.000362754027
166       0.000000061207
167      -0.000132744874
168       0.000017795526
169       0.000000010643
170       0.000032730942
171      -0.000000003128
172       0.000000012184
173      -0.000031258897
174       0.000038314841
175      -0.000200141092
176       0.000000006295
177       0.000000000619
178       0.000202787208
179      -0.000177251497
180       0.000000006638
181      -0.000015371774
182      -0.000015453125
183      -0.000000001835
184      -0.000000006380
185       0.000031436930
186       0.000008479807
187       0.000033016412
188      -0.000141726119
189      -0.000973619093
190      -0.000095287946
191      -0.000024507602
192       0.000009593730
193       0.000007464277
194      -0.000417079967
195      -0.000501425401
196      -0.000015993020
197      -0.000052189572
198       0.000000006848
199       0.000033016779
200      -0.000141691324
201      -0.000973620046
202      -0.000095281812
203      -0.000024517383
204      -0.000009580344
205       0.000007459445
206      -0.000417250307
207      -0.000501376440
208       0.000016074224
209      -0.000052228165
210       0.000000005740
211       0.000033016642
212      -0.000141641198
213      -0.000973636171
214       0.000095275538
215      -0.000024535154
216       0.000009568208
217       0.000033026285
218      -0.000141595544
219      -0.000973639190
220       0.000095266909
221      -0.000024546727
222      -0.000009549061
 Sym=     1a
 Ene= -1.03487039489474E+01
 Spin= Alpha
 Occup= 2.000000
  1       0.000026250059
  2       0.000204716457
  3      -0.002321538787
  4       0.005847418374
  5      -0.005033186996
  6      -0.000564369125
  7      -0.000317431280
  8       0.000000036468
  9       0.003648905354
 10       0.002227220750
 11      -0.000000249495
 12       0.000136628609
 13      -0.002354188603
 14       0.000000205769
 15       0.000025418033
 16       0.000000021171
 17       0.000000002935
 18      -0.000037192153
 19      -0.000219198007
 20      -0.001075541618
 21      -0.000000268473
 22      -0.000000154540
 23       0.000505522178
 24       0.002629527766
 25       0.000000075955
 26      -0.000388175142
 27      -0.000289229986
 28      -0.000000028275
 29      -0.000000110615
 30       0.000347471767
 31      -0.000609687344
 32       0.000026248363
 33       0.000204721068
 34      -0.002321590813
 35       0.005847527466
 36      -0.005033280254
 37       0.000564353004
 38      -0.000317441992
 39       0.000000035114
 40      -0.003648817766
 41       0.002227308107
 42      -0.000000240323
 43      -0.000136510955
 44      -0.002354246277
 45       0.000000205213
 46       0.000025421182
 47      -0.000000021157
 48       0.000000002520
 49      -0.000037187472
 50       0.000219200267
 51      -0.001075566457
 52       0.000000265663
 53      -0.000000149304
 54       0.000505436128
 55      -0.002629530194
 56       0.000000073806
 57       0.000388160599
 58      -0.000289241451
 59      -0.000000027795
 60       0.000000109165
 61      -0.000347503193
 62      -0.000609668370
 63       0.000080181631
 64       0.000253128794
 65      -0.002694166624
 66       0.010212205605
 67       0.002496817039
 68       0.000000009228
 69       0.000542566153
 70      -0.000000042269
 71      -0.000000107075
 72      -0.007528689337
 73       0.000000572329
 74       0.000000067052
 75      -0.000241160770
 76       0.000000000294
 77      -0.000020246578
 78       0.000000000176
 79      -0.000000004317
 80      -0.000018459944
 81       0.000000003276
 82      -0.001461017518
 83       0.000000000101
 84      -0.000000402641
 85      -0.002804819781
 86       0.000000052274
 87      -0.000000053510
 88       0.000000001497
 89       0.000288922123
 90      -0.000000090946
 91      -0.000000000366
 92      -0.000000021036
 93      -0.000650511990
 94      -0.467020266271
 95      -0.607920041350
 96      -0.036550246574
 97       0.008390183367
 98      -0.004913061426
 99      -0.000000008883
100       0.000092523553
101      -0.000000053772
102       0.000000005030
103      -0.005028973497
104       0.000000292951
105      -0.000000015203
106      -0.000502403163
107       0.000000088870
108       0.002602410309
109       0.000000003532
110       0.000000465611
111       0.000946590711
112      -0.000000025634
113       0.002885517334
114      -0.000000000376
115       0.000000618783
116       0.002581214690
117      -0.000000048465
118       0.000000019539
119       0.000000001400
120       0.000198830217
121      -0.000000349889
122      -0.000000002806
123      -0.000000115706
124      -0.003194181503
125       0.000025808311
126      -0.000022121914
127      -0.000115221530
128       0.001830350721
129       0.002000057797
130       0.000046147008
131      -0.000071291067
132       0.000000005110
133       0.001583627516
134       0.000346446529
135      -0.000000037131
136       0.001066180470
137       0.000361151797
138      -0.000000044919
139      -0.000127325532
140       0.000000000773
141      -0.000000015503
142       0.000054672062
143      -0.000054351869
144       0.000564900826
145       0.000000068389
146       0.000000138884
147       0.000464473896
148      -0.000612670057
149      -0.000000001031
150      -0.000005623023
151       0.000009762205
152       0.000000014569
153       0.000000002543
154      -0.000004051225
155       0.000100695729
156       0.000025803175
157      -0.000022093101
158      -0.000115012777
159       0.001828975606
160       0.002000654786
161      -0.000046159414
162      -0.000071296078
163       0.000000000862
164      -0.001584309796
165       0.000347352519
166       0.000000021391
167      -0.001065958672
168       0.000361017693
169      -0.000000045057
170      -0.000127278308
171      -0.000000000818
172      -0.000000012971
173       0.000054677522
174       0.000054437822
175       0.000565247106
176      -0.000000052764