
                                 *****************
                                 * O   R   C   A *
                                 *****************

                                            #,                                       
                                            ###                                      
                                            ####                                     
                                            #####                                    
                                            ######                                   
                                           ########,                                 
                                     ,,################,,,,,                         
                               ,,#################################,,                 
                          ,,##########################################,,             
                       ,#########################################, ''#####,          
                    ,#############################################,,   '####,        
                  ,##################################################,,,,####,       
                ,###########''''           ''''###############################       
              ,#####''   ,,,,##########,,,,          '''####'''          '####       
            ,##' ,,,,###########################,,,                        '##       
           ' ,,###''''                  '''############,,,                           
         ,,##''                                '''############,,,,        ,,,,,,###''
      ,#''                                            '''#######################'''  
     '                                                          ''''####''''         
             ,#######,   #######,   ,#######,      ##                                
            ,#'     '#,  ##    ##  ,#'     '#,    #''#        ,####,   ,####,        
            ##       ##  ##   ,#'  ##            #'  '#       #'       #'  '#        
            ##       ##  #######   ##           ,######,      #####,   #    #        
            '#,     ,#'  ##    ##  '#,     ,#' ,#      #,     #,   #   #,  ,#        
             '#######'   ##     ##  '#######'  #'      '#     '####' # '####'        



                #########################################################
                #                        -***-                          #
                #          Department of theory and spectroscopy        #
                #                                                       #
                #                      Frank Neese                      #
                #                                                       #
                #     Directorship, Architecture, Infrastructure        #
                #                    SHARK, DRIVERS                     #
                #        Core code/Algorithms in most modules           #
                #                                                       #
                #        Max Planck Institute fuer Kohlenforschung      #
                #                Kaiser Wilhelm Platz 1                 #
                #                 D-45470 Muelheim/Ruhr                 #
                #                      Germany                          #
                #                                                       #
                #                  All rights reserved                  #
                #                        -***-                          #
                #########################################################


                         Program Version 6.0.1  -  RELEASE   -


 With contributions from (in alphabetic order):
[Max-Planck-Institut fuer Kohlenforschung]                               
  Daniel Aravena         : Magnetic Suceptibility                        
  Michael Atanasov       : Ab Initio Ligand Field Theory (pilot matlab implementation)
  Alexander A. Auer      : GIAO ZORA, VPT2 properties, NMR spectrum      
  Ute Becker             : All parallelization in ORCA, NUMFREQ, NUMCALC 
  Giovanni Bistoni       : ED, misc. LED, open-shell LED, HFLD           
  Martin Brehm           : Molecular dynamics                            
  Dmytro Bykov           : pre 5.0 version of the SCF Hessian            
  Marcos Casanova-Páez   : Triplet and SCS-CIS(D). UHF-(DLPNO)-IP/EA/STEOM-CCSD. UHF-CVS-IP/STEOM-CCSD   
  Vijay G. Chilkuri      : MRCI spin determinant printing, contributions to CSF-ICE 
  Pauline Colinet        : FMM embedding                                 
  Dipayan Datta          : RHF DLPNO-CCSD density                        
  Achintya Kumar Dutta   : EOM-CC, STEOM-CC                              
  Nicolas Foglia         : Exact transition moments, OPA infrastructure, MCD improvements    
  Dmitry Ganyushin       : Spin-Orbit,Spin-Spin,Magnetic field MRCI      
  Miquel Garcia-Rates    : C-PCM and meta-GGA Hessian, CCSD/C-PCM, Gaussian charge scheme 
  Tiago L. C. Gouveia    : GS-ROHF, GS-ROCIS                             
  Yang Guo               : DLPNO-NEVPT2, F12-NEVPT2, CIM, IAO-localization        
  Andreas Hansen         : Spin unrestricted coupled pair/coupled cluster methods 
  Ingolf Harden          : AUTO-CI MPn and infrastructure                
  Benjamin Helmich-Paris : MC-RPA, TRAH-(SCF,CASSCF), AVAS, COSX integrals, SCF dyn. polar. 
  Lee Huntington         : MR-EOM, pCC                                   
  Robert Izsak           : Overlap fitted RIJCOSX, COSX-SCS-MP3, EOM     
  Riya Kayal             : Wick's Theorem for AUTO-CI, AUTO-CI UHF-CCSDT 
  Emily Kempfer          : AUTO-CI, RHF CISDT and CCSDT                  
  Christian Kollmar      : KDIIS, OOCD, Brueckner-CCSD(T), CCSD density, CASPT2, CASPT2-K, improved NEVPT2 
  Axel Koslowski         : Symmetry handling                             
  Simone Kossmann        : meta-GGA functionals, TD-DFT gradient, OOMP2, (MP2 Hessian; deprecated post 5.0) 
  Lucas Lang             : DCDCAS                                        
  Marvin Lechner         : AUTO-CI (C++ implementation), FIC-MRCC        
  Spencer Leger          : CASSCF response                               
  Dagmar Lenk            : GEPOL surface, SMD, ORCA-2-JSON               
  Dimitrios Liakos       : Extrapolation schemes; Compound Job, initial MDCI parallelization 
  Dimitrios Manganas     : Further ROCIS development; embedding schemes. LFT, Crystal Embedding 
  Dimitrios Pantazis     : SARC Basis sets                               
  Anastasios Papadopoulos: AUTO-CI, single reference methods and gradients 
  Taras Petrenko         : pre 6.0 DFT Hessian and TD-DFT gradient, (ASA, deprecated), ECA, 1-Electron XAS/XES, NRVS 
  Peter Pinski           : DLPNO-MP2, DLPNO-MP2 Gradient                 
  Christoph Reimann      : Effective Core Potentials                     
  Marius Retegan         : Local ZFS, SOC                                
  Christoph Riplinger    : Optimizer, TS searches, QM/MM, DLPNO-CCSD(T), (RO)-DLPNO pert. Triples 
  Michael Roemelt        : Original ROCIS implementation                 
  Masaaki Saitow         : Open-shell DLPNO-CCSD energy and density      
  Barbara Sandhoefer     : DKH picture change effects                    
  Kantharuban Sivalingam : CASSCF convergence/infrastructure, NEVPT2 and variants, FIC-MRCI 
  Bernardo de Souza      : ESD, SOC TD-DFT                               
  Georgi L. Stoychev     : AutoAux, RI-MP2 NMR, DLPNO-MP2 response, X2C  
  Van Anh Tran           : RI-MP2 g-tensors                              
  Willem Van den Heuvel  : Paramagnetic NMR                              
  Zikuan Wang            : NOTCH, Electric field optimization            
  Frank Wennmohs         : Technical directorship and infrastructure     
  Hang Xu                : AUTO-CI-Response properties                   
                                                                         
[FACCTs GmbH]                                                            
  Markus Bursch, Miquel Garcia-Rates, Christoph Riplinger, Bernardo de Souza, Georgi L. Stoychev 
                                                                 
  APM, Basis sets (HGBS, AHGBS, def-TZVP (Ac-Lr), def2-XVPD (La-Lu)), CI-OPT, improved COSX, DLPNO-Multilevel,           
  DOCKER, DRACO, updates on ESD, GOAT, IRC, LR-CPCM, MBIS, meta-GGA TD-DFT gradient, ML-optimized integration grids, 
  MM, NACMEs, nearIR, NEB, NEB-TS, NL-DFT gradient (VV10), 2- and 3-layer-ONIOM, interface openCOSMO-RS, QMMM,   
  Crystal-QMMM, SF, symmetry and pop. for TD-DFT, r2SCAN hybrids, SOLVATOR                                   
                                                                         
[Other institutions]                                                     
  V. Asgeirsson          : NEB                                           
  Christoph Bannwarth    : sTDA-DFT, sTD-DFT, PBEh-3c, B97-3c, D3        
  Sebastian Ehlert       : rSCAN, r2SCAN, r2SCAN-3c, D4, dhf basis sets  
  Marvin Friede          : D4 for Fr, Ra, Ac-Lr                          
  Lars Goerigk           : TD-DFT with DH, B97 family of functionals     
  Stefan Grimme          : VdW corrections, initial TS optimization, DFT functionals, gCP, sTDA/sTD-DF 
  Waldemar Hujo          : DFT-NL                                        
  H. Jonsson             : NEB                                           
  Holger Kruse           : gCP                                           
  Marcel Mueller         : wB97X-3c, vDZP basis set                      
  Hagen Neugebauer       : wr2SCAN                                       
  Tobias Risthaus        : range-separated hybrid DFT                    
  Lukas Wittmann         : regularized MP2, r2SCAN double-hybrids, wr2SCAN        
                                                                         
We gratefully acknowledge several colleagues who have allowed us to      
interface, adapt or use parts of their codes:                            
  Ed Valeev, F. Pavosevic, A. Kumar             : LibInt (2-el integral package), F12 methods 
  Garnet Chan, S. Sharma, J. Yang, R. Olivares  : DMRG                   
  Ulf Ekstrom                                   : XCFun DFT Library      
  Mihaly Kallay                                 : mrcc  (arbitrary order and MRCC methods)
  Frank Weinhold                                : gennbo (NPA and NBO analysis)           
  Simon Mueller                                 : openCOSMO-RS                            
  Christopher J. Cramer and Donald G. Truhlar   : smd solvation model                     
  S Lehtola, MJT Oliveira, MAL Marques          : LibXC Library                           
  Liviu Ungur et al                             : ANISO software                          


 Your calculation uses the libint2 library for the computation of 2-el integrals
 For citations please refer to: http://libint.valeyev.net

 Your ORCA version has been built with support for libXC version: 6.2.2
 For citations please refer to: https://libxc.gitlab.io

 This ORCA versions uses:
   CBLAS   interface :  Fast vector & matrix operations
   LAPACKE interface :  Fast linear algebra routines
   SCALAPACK package :  Parallel linear algebra routines
   Shared memory     :  Shared parallel matrices
   BLAS/LAPACK       :  OpenBLAS 0.3.27  USE64BITINT DYNAMIC_ARCH NO_AFFINITY SkylakeX SINGLE_THREADED
        Core in use  :  SkylakeX
   Copyright (c) 2011-2014, The OpenBLAS Project


NOTE: MaxCore=5000 MB was set to SCF,MP2,MDCI,CIPSI,MRCI and CIS
      => If you want to overwrite this, your respective input block should be placed after the MaxCore statement
Warning: RI is on but no J-basis has been assigned. Assigning Def2/J (nothing to worry about!)
================================================================================

----- Orbital basis set information -----
Your calculation utilizes the basis: def2-TZVP
   F. Weigend and R. Ahlrichs, Phys. Chem. Chem. Phys. 7, 3297 (2005).

----- AuxJ basis set information -----
Your calculation utilizes the auxiliary basis: def2/J
   F. Weigend, Phys. Chem. Chem. Phys. 8, 1057 (2006).

================================================================================
                                        WARNINGS
                       Please study these warnings very carefully!
================================================================================

WARNING: Old DensityContainer found on disk!
         Will remove this file - 
         If you want to keep old densities, please start your calculation with a different basename. 


WARNING: Geometry Optimization
  ===> : Switching off AutoStart
         For restart on a previous wavefunction, please use MOREAD

================================================================================
                                       INPUT FILE
================================================================================
NAME = DMC.inp
|  1> ! Opt B3LYP def2-TZVP TightSCF TightOpt CPCM(water)
|  2> 
|  3> %maxcore 5000
|  4> 
|  5> %pal
|  6> nprocs 20
|  7> end
|  8> 
|  9> * xyz 0 1
| 10> O         -1.10230       -0.69800        0.00020
| 11> O          1.10230       -0.69800        0.00020
| 12> O          0.00010        1.32640        0.00020
| 13> C          0.00000        0.10280        0.00050
| 14> C         -2.36110       -0.01660       -0.00060
| 15> C          2.36100       -0.01660       -0.00060
| 16> H         -2.45960        0.59780        0.89950
| 17> H         -3.15470       -0.76840       -0.00080
| 18> H         -2.45870        0.59750       -0.90100
| 19> H          3.15470       -0.76850       -0.00090
| 20> H          2.45960        0.59780        0.89950
| 21> H          2.45870        0.59740       -0.90090
| 22> *
| 23> 
| 24>                          ****END OF INPUT****
================================================================================

                       *****************************
                       * Geometry Optimization Run *
                       *****************************

Geometry optimization settings:
Update method            Update   .... BFGS
Choice of coordinates    CoordSys .... (2022) Redundant Internals
Initial Hessian          InHess   .... Almloef's Model
Max. no of cycles        MaxIter  .... 50

Convergence Tolerances:
Energy Change            TolE     ....  1.0000e-06 Eh
Max. Gradient            TolMAXG  ....  1.0000e-04 Eh/bohr
RMS Gradient             TolRMSG  ....  3.0000e-05 Eh/bohr
Max. Displacement        TolMAXD  ....  1.0000e-03 bohr
RMS Displacement         TolRMSD  ....  6.0000e-04 bohr
Strict Convergence                .... False

------------------------------------------------------------------------------
                        ORCA OPTIMIZATION COORDINATE SETUP
------------------------------------------------------------------------------

The optimization will be done in redundant internal coordinates (2022)
Making redundant internal coordinates   ...  (2022 redundants) done
Evaluating the initial hessian          ...  (Almloef) done
Evaluating the coordinates              ...  done
Calculating the B-matrix                .... done
Calculating the G-matrix                .... done
Diagonalizing the G-matrix              .... done
Small eigenvalue found = 2.780e-02
The first mode is                       ....    8
The number of degrees of freedom        ....   30

    -----------------------------------------------------------------
                    Redundant Internal Coordinates


    -----------------------------------------------------------------
         Definition                    Initial Value    Approx d2E/dq
    -----------------------------------------------------------------
      1. B(C   3,O   1)                  1.3625         0.619135   
      2. B(C   3,O   2)                  1.2236         1.031231   
      3. B(C   3,O   0)                  1.3625         0.619135   
      4. B(C   4,O   0)                  1.4314         0.480658   
      5. B(C   5,O   1)                  1.4313         0.480814   
      6. B(H   6,C   4)                  1.0942         0.354529   
      7. B(H   7,C   4)                  1.0932         0.355941   
      8. B(H   8,C   4)                  1.0942         0.354532   
      9. B(H   9,C   5)                  1.0933         0.355756   
     10. B(H  10,C   5)                  1.0943         0.354518   
     11. B(H  11,C   5)                  1.0941         0.354701   
     12. A(C   3,O   0,C   4)          115.5752         0.409306   
     13. A(C   3,O   1,C   5)          115.5733         0.409330   
     14. A(O   1,C   3,O   2)          125.9930         0.469716   
     15. A(O   0,C   3,O   1)          108.0046         0.428196   
     16. A(O   0,C   3,O   2)          126.0024         0.469716   
     17. A(O   0,C   4,H   7)          108.1223         0.335434   
     18. A(O   0,C   4,H   6)          110.2423         0.335213   
     19. A(H   6,C   4,H   8)          110.7151         0.289420   
     20. A(O   0,C   4,H   8)          110.2464         0.335213   
     21. A(H   7,C   4,H   8)          108.7269         0.289601   
     22. A(H   6,C   4,H   7)          108.7204         0.289600   
     23. A(H   9,C   5,H  10)          108.7209         0.289575   
     24. A(O   1,C   5,H  10)          110.2480         0.335229   
     25. A(O   1,C   5,H  11)          110.2521         0.335258   
     26. A(O   1,C   5,H   9)          108.1202         0.335423   
     27. A(H  10,C   5,H  11)          110.7150         0.289440   
     28. A(H   9,C   5,H  11)          108.7170         0.289599   
     29. D(O   2,C   3,O   1,C   5)     -0.0029         0.028118   
     30. D(O   0,C   3,O   1,C   5)    179.9532         0.028118   
     31. D(O   1,C   3,O   0,C   4)   -179.9532         0.028118   
     32. D(O   2,C   3,O   0,C   4)      0.0029         0.028118   
     33. D(H   7,C   4,O   0,C   3)    179.9981         0.018226   
     34. D(H   8,C   4,O   0,C   3)     61.2618         0.018226   
     35. D(H   6,C   4,O   0,C   3)    -61.2758         0.018226   
     36. D(H  11,C   5,O   1,C   3)    -61.2663         0.018238   
     37. D(H  10,C   5,O   1,C   3)     61.2788         0.018238   
     38. D(H   9,C   5,O   1,C   3)   -179.9926         0.018238   
    -----------------------------------------------------------------

Number of atoms                         .... 12
Number of degrees of freedom            .... 38


         *************************************************************
         *                GEOMETRY OPTIMIZATION CYCLE   1            *
         *************************************************************
---------------------------------
CARTESIAN COORDINATES (ANGSTROEM)
---------------------------------
  O     -1.102300   -0.698000    0.000200
  O      1.102300   -0.698000    0.000200
  O      0.000100    1.326400    0.000200
  C      0.000000    0.102800    0.000500
  C     -2.361100   -0.016600   -0.000600
  C      2.361000   -0.016600   -0.000600
  H     -2.459600    0.597800    0.899500
  H     -3.154700   -0.768400   -0.000800
  H     -2.458700    0.597500   -0.901000
  H      3.154700   -0.768500   -0.000900
  H      2.459600    0.597800    0.899500
  H      2.458700    0.597400   -0.900900

----------------------------
CARTESIAN COORDINATES (A.U.)
----------------------------
  NO LB      ZA    FRAG     MASS         X           Y           Z
   0 O     8.0000    0    15.999   -2.083045   -1.319029    0.000378
   1 O     8.0000    0    15.999    2.083045   -1.319029    0.000378
   2 O     8.0000    0    15.999    0.000189    2.506533    0.000378
   3 C     6.0000    0    12.011    0.000000    0.194264    0.000945
   4 C     6.0000    0    12.011   -4.461832   -0.031369   -0.001134
   5 C     6.0000    0    12.011    4.461643   -0.031369   -0.001134
   6 H     1.0000    0     1.008   -4.647970    1.129678    1.699809
   7 H     1.0000    0     1.008   -5.961519   -1.452066   -0.001512
   8 H     1.0000    0     1.008   -4.646270    1.129111   -1.702643
   9 H     1.0000    0     1.008    5.961519   -1.452255   -0.001701
  10 H     1.0000    0     1.008    4.647970    1.129678    1.699809
  11 H     1.0000    0     1.008    4.646270    1.128922   -1.702454

--------------------------------
INTERNAL COORDINATES (ANGSTROEM)
--------------------------------
 O      0   0   0     0.000000000000     0.00000000     0.00000000
 O      1   0   0     2.204600000000     0.00000000     0.00000000
 O      2   1   0     2.305003297178    61.43358104     0.00000000
 C      3   2   1     1.223600040863    28.57110468     0.02937314
 C      1   2   3     1.431392343140   151.57289318     0.06726827
 C      2   1   3     1.431304401586   151.57098757   359.93273173
 H      5   1   2     1.094243857648   110.24233489   298.66637734
 H      5   1   2     1.093162494783   108.12227189   179.94029331
 H      5   1   2     1.094241623226   110.24639625    61.20394637
 H      6   2   1     1.093303887307   108.12016858   180.06521880
 H      6   2   1     1.094252863830   110.24798296    61.33657054
 H      6   2   1     1.094112142333   110.25206353   298.79148767

---------------------------
INTERNAL COORDINATES (A.U.)
---------------------------
 O      0   0   0     0.000000000000     0.00000000     0.00000000
 O      1   0   0     4.166090234843     0.00000000     0.00000000
 O      2   1   0     4.355824969451    61.43358104     0.00000000
 C      3   2   1     2.312268974686    28.57110468     0.02937314
 C      1   2   3     2.704939518727   151.57289318     0.06726827
 C      2   1   3     2.704773333274   151.57098757   359.93273173
 H      5   1   2     2.067821214680   110.24233489   298.66637734
 H      5   1   2     2.065777735014   108.12227189   179.94029331
 H      5   1   2     2.067816992234   110.24639625    61.20394637
 H      6   2   1     2.066044928161   108.12016858   180.06521880
 H      6   2   1     2.067838233898   110.24798296    61.33657054
 H      6   2   1     2.067572308807   110.25206353   298.79148767

---------------------
BASIS SET INFORMATION
---------------------
There are 3 groups of distinct atoms

 Group   1 Type O   : 11s6p2d1f contracted to 5s3p2d1f pattern {62111/411/11/1}
 Group   2 Type C   : 11s6p2d1f contracted to 5s3p2d1f pattern {62111/411/11/1}
 Group   3 Type H   : 5s1p contracted to 3s1p pattern {311/1}

Atom   0O    basis set group =>   1
Atom   1O    basis set group =>   1
Atom   2O    basis set group =>   1
Atom   3C    basis set group =>   2
Atom   4C    basis set group =>   2
Atom   5C    basis set group =>   2
Atom   6H    basis set group =>   3
Atom   7H    basis set group =>   3
Atom   8H    basis set group =>   3
Atom   9H    basis set group =>   3
Atom  10H    basis set group =>   3
Atom  11H    basis set group =>   3
---------------------------------
AUXILIARY/J BASIS SET INFORMATION
---------------------------------
There are 3 groups of distinct atoms

 Group   1 Type O   : 12s5p4d2f1g contracted to 6s4p3d1f1g pattern {711111/2111/211/2/1}
 Group   2 Type C   : 12s5p4d2f1g contracted to 6s4p3d1f1g pattern {711111/2111/211/2/1}
 Group   3 Type H   : 5s2p1d contracted to 3s1p1d pattern {311/2/1}

Atom   0O    basis set group =>   1
Atom   1O    basis set group =>   1
Atom   2O    basis set group =>   1
Atom   3C    basis set group =>   2
Atom   4C    basis set group =>   2
Atom   5C    basis set group =>   2
Atom   6H    basis set group =>   3
Atom   7H    basis set group =>   3
Atom   8H    basis set group =>   3
Atom   9H    basis set group =>   3
Atom  10H    basis set group =>   3
Atom  11H    basis set group =>   3
--------------------------------------------------------------------------
WARNING: There was an error initializing an OpenFabrics device.

  Local host:   ga00
  Local device: mlx5_0
--------------------------------------------------------------------------


           ************************************************************
           *        Program running with 20 parallel MPI-processes    *
           *              working on a common directory               *
           ************************************************************
------------------------------------------------------------------------------
                             ORCA STARTUP CALCULATIONS
                           -- RI-GTO INTEGRALS CHOSEN --
------------------------------------------------------------------------------
------------------------------------------------------------------------------
                   ___                                                        
                  /   \      - P O W E R E D   B Y -                         
                 /     \                                                     
                 |  |  |   _    _      __       _____    __    __             
                 |  |  |  | |  | |    /  \     |  _  \  |  |  /  |          
                  \  \/   | |  | |   /    \    | | | |  |  | /  /          
                 / \  \   | |__| |  /  /\  \   | |_| |  |  |/  /          
                |  |  |   |  __  | /  /__\  \  |    /   |      \           
                |  |  |   | |  | | |   __   |  |    \   |  |\   \          
                \     /   | |  | | |  |  |  |  | |\  \  |  | \   \       
                 \___/    |_|  |_| |__|  |__|  |_| \__\ |__|  \__/        
                                                                              
                      - O R C A' S   B I G   F R I E N D -                    
                                      &                                       
                       - I N T E G R A L  F E E D E R -                       
                                                                              
 v1 FN, 2020, v2 2021, v3 2022-2024                                           
------------------------------------------------------------------------------


----------------------
SHARK INTEGRAL PACKAGE
----------------------

Number of atoms                             ...     12
Number of basis functions                   ...    222
Number of shells                            ...     90
Maximum angular momentum                    ...      3
Integral batch strategy                     ... SHARK/LIBINT Hybrid
RI-J (if used) integral strategy            ... SPLIT-RIJ (Revised 2003 algorithm where possible)
Printlevel                                  ...      1
Contraction scheme used                     ... SEGMENTED contraction
Prescreening option                         ... SCHWARTZ
   Thresh                                   ... 2.500e-11
   Tcut                                     ... 2.500e-12
   Tpresel                                  ... 2.500e-12 
Coulomb Range Separation                    ... NOT USED
Exchange Range Separation                   ... NOT USED
Multipole approximations                    ... NOT USED
Finite Nucleus Model                        ... NOT USED
CABS basis                                  ... NOT available
Auxiliary Coulomb fitting basis             ... AVAILABLE
   # of basis functions in Aux-J            ...    360
   # of shells in Aux-J                     ...    120
   Maximum angular momentum in Aux-J        ...      4
Auxiliary J/K fitting basis                 ... NOT available
Auxiliary Correlation fitting basis         ... NOT available
Auxiliary 'external' fitting basis          ... NOT available

Checking pre-screening integrals            ... done (  0.0 sec) Dimension = 90
Check shell pair data                       ... done (  0.0 sec)
Shell pair information
Shell pair cut-off parameter TPreSel        ...   2.5e-12
Total number of shell pairs                 ...      4095
Shell pairs after pre-screening             ...      3752
Total number of primitive shell pairs       ...     12396
Primitive shell pairs kept                  ...      8752
          la=0 lb=0:   1038 shell pairs
          la=1 lb=0:   1058 shell pairs
          la=1 lb=1:    282 shell pairs
          la=2 lb=0:    534 shell pairs
          la=2 lb=1:    274 shell pairs
          la=2 lb=2:     77 shell pairs
          la=3 lb=0:    262 shell pairs
          la=3 lb=1:    136 shell pairs
          la=3 lb=2:     70 shell pairs
          la=3 lb=3:     21 shell pairs

Calculating one electron integrals          ... done (  0.0 sec)
Calculating RI/J V-Matrix + Cholesky decomp.... done (  0.0 sec)
Calculating Nuclear repulsion               ... done (  0.0 sec) ENN=    249.064573115065 Eh

Diagonalization of the overlap matrix:
Smallest eigenvalue                        ... 9.750e-04
Time for diagonalization                   ...    0.004 sec
Threshold for overlap eigenvalues          ... 1.000e-07
Number of eigenvalues below threshold      ... 0
Time for construction of square roots      ...    0.002 sec
Total time needed                          ...    0.007 sec

-------------------
DFT GRID GENERATION
-------------------

General Integration Accuracy     IntAcc      ... 4.388
Radial Grid Type                 RadialGrid  ... OptM3 with GC (2021)
Angular Grid (max. ang.)         AngularGrid ... 4 (Lebedev-302)
Angular grid pruning method      GridPruning ... 4 (adaptive)
Weight generation scheme         WeightScheme... mBecke (2022)
Basis function cutoff            BFCut       ... 1.0000e-11
Integration weight cutoff        WCut        ... 1.0000e-14
Partially contracted basis set               ... off
Rotationally invariant grid construction     ... off
Angular grids for H and He will be reduced by one unit

Total number of grid points                  ...    55947
Total number of batches                      ...      880
Average number of points per batch           ...       63
Average number of grid points per atom       ...     4662

--------------------
COSX GRID GENERATION
--------------------

GRIDX 1
-------
General Integration Accuracy     IntAcc      ... 3.816
Radial Grid Type                 RadialGrid  ... OptM3 with GC (2021)
Angular Grid (max. ang.)         AngularGrid ... 1 (Lebedev-50)
Angular grid pruning method      GridPruning ... 4 (adaptive)
Weight generation scheme         WeightScheme... mBecke (2022)
Basis function cutoff            BFCut       ... 1.0000e-11
Integration weight cutoff        WCut        ... 1.0000e-14
Partially contracted basis set               ... on
Rotationally invariant grid construction     ... off
Angular grids for H and He will be reduced by one unit

Total number of grid points                  ...     7147
Total number of batches                      ...       63
Average number of points per batch           ...      113
Average number of grid points per atom       ...      596
UseSFitting                                  ... on

GRIDX 2
-------
General Integration Accuracy     IntAcc      ... 4.020
Radial Grid Type                 RadialGrid  ... OptM3 with GC (2021)
Angular Grid (max. ang.)         AngularGrid ... 2 (Lebedev-110)
Angular grid pruning method      GridPruning ... 4 (adaptive)
Weight generation scheme         WeightScheme... mBecke (2022)
Basis function cutoff            BFCut       ... 1.0000e-11
Integration weight cutoff        WCut        ... 1.0000e-14
Partially contracted basis set               ... on
Rotationally invariant grid construction     ... off
Angular grids for H and He will be reduced by one unit

Total number of grid points                  ...    15674
Total number of batches                      ...      128
Average number of points per batch           ...      122
Average number of grid points per atom       ...     1306
UseSFitting                                  ... on

GRIDX 3
-------
General Integration Accuracy     IntAcc      ... 4.338
Radial Grid Type                 RadialGrid  ... OptM3 with GC (2021)
Angular Grid (max. ang.)         AngularGrid ... 3 (Lebedev-194)
Angular grid pruning method      GridPruning ... 4 (adaptive)
Weight generation scheme         WeightScheme... mBecke (2022)
Basis function cutoff            BFCut       ... 1.0000e-11
Integration weight cutoff        WCut        ... 1.0000e-14
Partially contracted basis set               ... on
Rotationally invariant grid construction     ... off
Angular grids for H and He will be reduced by one unit

Total number of grid points                  ...    34551
Total number of batches                      ...      276
Average number of points per batch           ...      125
Average number of grid points per atom       ...     2879
UseSFitting                                  ... on
Initializing property integral containers    ... done (  0.0 sec)

SHARK setup successfully completed in   0.4 seconds

Maximum memory used throughout the entire STARTUP-calculation: 18.4 MB
[ga00:2735987] 19 more processes have sent help message help-mpi-btl-openib.txt / error in device init
[ga00:2735987] Set MCA parameter "orte_base_help_aggregate" to 0 to see all help / error messages
--------------------------------------------------------------------------
WARNING: There was an error initializing an OpenFabrics device.

  Local host:   ga00
  Local device: mlx5_0
--------------------------------------------------------------------------


           ************************************************************
           *        Program running with 20 parallel MPI-processes    *
           *              working on a common directory               *
           ************************************************************
-------------------------------------------------------------------------------
                                 ORCA GUESS
                   Start orbitals & Density for SCF / CASSCF
-------------------------------------------------------------------------------

------------
SCF SETTINGS
------------
Hamiltonian:
 Density Functional     Method          .... DFT(GTOs)
 Exchange Functional    Exchange        .... B88
   X-Alpha parameter    XAlpha          ....  0.666667
   Becke's b parameter  XBeta           ....  0.004200
 Correlation Functional Correlation     .... LYP
 LDA part of GGA corr.  LDAOpt          .... VWN-5
 Gradients option       PostSCFGGA      .... off
 Hybrid DFT is turned on
   Fraction HF Exchange ScalHFX         ....  0.200000
   Scaling of DF-GGA-X  ScalDFX         ....  0.720000
   Scaling of DF-GGA-C  ScalDFC         ....  0.810000
   Scaling of DF-LDA-C  ScalLDAC        ....  1.000000
   Perturbative correction              ....  0.000000
   NL short-range parameter             ....  4.800000
 RI-approximation to the Coulomb term is turned on
   Number of AuxJ basis functions       .... 360
   RIJ-COSX (HFX calculated with COS-X)).... on


General Settings:
 Integral files         IntName         .... DMC
 Hartree-Fock type      HFTyp           .... RHF
 Total Charge           Charge          ....    0
 Multiplicity           Mult            ....    1
 Number of Electrons    NEL             ....   48
 Basis Dimension        Dim             ....  222
 Nuclear Repulsion      ENuc            ....    249.0645731151 Eh

Convergence Acceleration:
 AO-DIIS                CNVDIIS         .... on
   Start iteration      DIISMaxIt       ....    12
   Startup error        DIISStart       ....  0.200000
   # of expansion vecs  DIISMaxEq       ....     5
   Bias factor          DIISBfac        ....   1.050
   Max. coefficient     DIISMaxC        ....  10.000
 MO-DIIS                CNVKDIIS        .... off
 Trust-Rad. Augm. Hess. CNVTRAH         .... auto
   Auto Start mean grad. ratio tolernc. ....  1.125000
   Auto Start start iteration           ....    50
   Auto Start num. interpolation iter.  ....    10
   Max. Number of Micro iterations      ....    24
   Max. Number of Macro iterations      .... Maxiter - #DIIS iter
   Number of Davidson start vectors     ....     2
   Converg. threshold    (grad. norm)   ....   1.000e-05
   Grad. Scal. Fac. for Micro threshold ....   0.100
   Minimum threshold for Micro iter.    ....   1.000e-02
   NR start threshold (gradient norm)   ....   1.000e-04
   Initial trust radius                 ....   0.400
   Minimum AH scaling param. (alpha)    ....   1.000
   Maximum AH scaling param. (alpha)    .... 1000.000
   Quad. conv. algorithm                .... NR
   White noise on init. David. guess    .... on
   Maximum white noise                  ....   0.010
   Pseudo random numbers                .... off
   Inactive MOs                         .... canonical
   Orbital update algorithm             .... Taylor
   Preconditioner                       .... Diag
   Full preconditioner red. dimension   ....   250
 SOSCF                  CNVSOSCF        .... on
   Start iteration      SOSCFMaxIt      ....   150
   Startup grad/error   SOSCFStart      ....  0.003300
   Hessian update       SOSCFHessUp     .... L-BFGS
 Level Shifting         CNVShift        .... on
   Level shift para.    LevelShift      ....    0.2500
   Turn off err/grad.   ShiftErr        ....    0.0010
 Zerner damping         CNVZerner       .... off
 Static damping         CNVDamp         .... on
   Fraction old density DampFac         ....    0.7000
   Max. Damping (<1)    DampMax         ....    0.9800
   Min. Damping (>=0)   DampMin         ....    0.0000
   Turn off err/grad.   DampErr         ....    0.1000

SCF Procedure:
 Maximum # iterations   MaxIter         ....   125
 SCF integral mode      SCFMode         .... Direct
   Integral package                     .... SHARK and LIBINT hybrid scheme
 Reset frequency        DirectResetFreq ....    20
 Integral Threshold     Thresh          ....  2.500e-11 Eh
 Primitive CutOff       TCut            ....  2.500e-12 Eh

Convergence Tolerance:
 Convergence Check Mode ConvCheckMode   .... Total+1el-Energy
 Convergence forced     ConvForced      .... 0
 Energy Change          TolE            ....  1.000e-08 Eh
 1-El. energy change                    ....  1.000e-05 Eh
 Orbital Gradient       TolG            ....  1.000e-05
 Orbital Rotation angle TolX            ....  1.000e-05
 DIIS Error             TolErr          ....  5.000e-07

------------------------------
INITIAL GUESS: MODEL POTENTIAL
------------------------------
Loading Hartree-Fock densities                     ... done
Calculating cut-offs                               ... done
Initializing the effective Hamiltonian             ... done
Setting up the integral package (SHARK)            ... done
Starting the Coulomb interaction                   ... done (   0.0 sec)
Making the grid                                    ... done (   0.0 sec)
Mapping shells                                     ... done
Starting the XC term evaluation                    ... done (   0.0 sec)
  promolecular density results
     # of electrons  =     47.996079255
     EX              =    -41.776771973
     EC              =     -1.654879723
     EX+EC           =    -43.431651696
Transforming the Hamiltonian                       ... done (   0.0 sec)
Diagonalizing the Hamiltonian                      ... done (   0.0 sec)
Back transforming the eigenvectors                 ... done (   0.0 sec)
Now organizing SCF variables                       ... done
                      ------------------
                      INITIAL GUESS DONE (   0.1 sec)
                      ------------------
             **** ENERGY FILE WAS UPDATED (DMC.en.tmp) ****
Finished Guess after   0.6 sec
Maximum memory used throughout the entire GUESS-calculation: 12.3 MB
[ga00:2736083] 19 more processes have sent help message help-mpi-btl-openib.txt / error in device init
[ga00:2736083] Set MCA parameter "orte_base_help_aggregate" to 0 to see all help / error messages
--------------------------------------------------------------------------
WARNING: There was an error initializing an OpenFabrics device.

  Local host:   ga00
  Local device: mlx5_0
--------------------------------------------------------------------------


           ************************************************************
           *        Program running with 20 parallel MPI-processes    *
           *              working on a common directory               *
           ************************************************************

-------------------------------------------------------------------------------------------
                                      ORCA LEAN-SCF
                              memory conserving SCF solver
-------------------------------------------------------------------------------------------

--------------------
CPCM SOLVATION MODEL
--------------------
CPCM parameters:
  Epsilon                                         ...      80.1510
  Refrac                                          ...       1.3328
  Rsolv                                           ...       1.3000
  Surface type                                    ... GAUSSIAN VDW
  Discretization scheme                           ... Constant charge density
    Threshold for H atoms                         ...       5.0000 (charges/Ang^2)
    Threshold for non-H atoms                     ...       5.0000 (charges/Ang^2)
  Epsilon function type                           ...         CPCM
Solvent:                                          ... WATER
Radii:
  Scheme                                          ... Element-dependent radii
  Radius for O  used is    3.4469 Bohr (=   1.8240 Ang.)
  Radius for C  used is    3.8550 Bohr (=   2.0400 Ang.)
  Radius for H  used is    2.4944 Bohr (=   1.3200 Ang.)
Calculating surface                               ...        done! (  0.0s)
Cavity surface points                             ...         1165
Cavity Volume                                     ...     758.1762
Cavity Surface-area                               ...     472.9115
Calculating surface distance matrix               ...        done! (  0.0s)
Performing Cholesky decomposition & store         ...        done! (  0.0s)
Overall time for CPCM initialization              ...                 0.0s

----------------------------------------D-I-I-S--------------------------------------------
Iteration    Energy (Eh)           Delta-E    RMSDP     MaxDP     DIISErr   Damp  Time(sec)
-------------------------------------------------------------------------------------------
               ***  Starting incremental Fock matrix formation  ***
    1    -343.3749629907873668     0.00e+00  1.50e-03  6.00e-02  3.14e-01  0.700   0.3
    2    -343.4776943013761183    -1.03e-01  9.18e-04  3.30e-02  1.21e-01  0.700   0.2
                               ***Turning on AO-DIIS***
    3    -343.5121698837486974    -3.45e-02  3.45e-04  6.55e-03  3.03e-02  0.700   0.2
    4    -343.5347363697053424    -2.26e-02  4.97e-04  1.20e-02  1.26e-02  0.000   0.2
    5    -343.5862093638876331    -5.15e-02  1.39e-04  2.58e-03  5.35e-03  0.000   0.2
                              *** Initializing SOSCF ***
---------------------------------------S-O-S-C-F--------------------------------------
Iteration    Energy (Eh)           Delta-E    RMSDP     MaxDP     MaxGrad    Time(sec)
--------------------------------------------------------------------------------------
    6    -343.5864009475228613    -1.92e-04  5.03e-05  8.15e-04  1.64e-03     0.2
               *** Restarting incremental Fock matrix formation ***
    7    -343.5864236076108682    -2.27e-05  4.26e-05  1.38e-03  6.25e-04     0.3
    8    -343.5864134910384564     1.01e-05  2.18e-05  9.00e-04  1.32e-03     0.3
    9    -343.5864281679504302    -1.47e-05  3.64e-06  1.64e-04  7.56e-05     0.3
   10    -343.5864280875425720     8.04e-08  2.05e-06  8.45e-05  1.13e-04     0.2
   11    -343.5864282336547149    -1.46e-07  5.88e-07  1.22e-05  6.84e-06     0.2
   12    -343.5864282314670390     2.19e-09  3.02e-07  6.27e-06  6.71e-06     0.2
                 **** Energy Check signals convergence ****

               *****************************************************
               *                     SUCCESS                       *
               *           SCF CONVERGED AFTER  12 CYCLES          *
               *****************************************************

Recomputing exchange energy using gridx3       ... done (    0.364 sec)
Old exchange energy                            :     -8.465284314 Eh
New exchange energy                            :     -8.465264286 Eh
Exchange energy change after final integration :      0.000020027 Eh
Total energy after final integration           :   -343.586408204 Eh
             **** ENERGY FILE WAS UPDATED (DMC.en.tmp) ****

----------------
TOTAL SCF ENERGY
----------------

Total Energy       :       -343.58640820401581 Eh           -9349.46148 eV

Components:
Nuclear Repulsion  :        249.06457311506492 Eh            6777.39159 eV
Electronic Energy  :       -592.64027534671652 Eh          -16126.56175 eV
One Electron Energy:       -962.86919176567460 Eh          -26201.00274 eV
Two Electron Energy:        370.22891641895808 Eh           10074.44099 eV
CPCM Dielectric    :         -0.01072599981550 Eh              -0.29187 eV

Virial components:
Potential Energy   :       -685.53067332741784 Eh          -18654.23798 eV
Kinetic Energy     :        341.94426512340209 Eh            9304.77650 eV
Virial Ratio       :          2.00480237058522

DFT components:
N(Alpha)           :       24.000023210770 electrons
N(Beta)            :       24.000023210770 electrons
N(Total)           :       48.000046421539 electrons
E(X)               :      -33.703125439006 Eh       
E(C)               :       -1.953055343800 Eh       
E(XC)              :      -35.656180782806 Eh       

CPCM Solvation Model Properties:
Surface-charge          :         -0.01838036293879
Corrected charge        :          0.00000000000000
Outlying charge corr.   :          0.00002775300797 Eh               0.00076 eV
Free-energy (cav+disp)  :  This term is not implemented in the current solvation scheme

---------------
SCF CONVERGENCE
---------------

  Last Energy change         ...   -2.1877e-09  Tolerance :   1.0000e-08
  Last MAX-Density change    ...    6.2706e-06  Tolerance :   1.0000e-07
  Last RMS-Density change    ...    3.0151e-07  Tolerance :   5.0000e-09
  Last DIIS Error            ...    1.6429e-03  Tolerance :   5.0000e-07
  Last Orbital Gradient      ...    6.7051e-06  Tolerance :   1.0000e-05
  Last Orbital Rotation      ...    4.4311e-06  Tolerance :   1.0000e-05


----------------
ORBITAL ENERGIES
----------------

  NO   OCC          E(Eh)            E(eV) 
   0   2.0000     -19.183971      -522.0224 
   1   2.0000     -19.183959      -522.0221 
   2   2.0000     -19.128200      -520.5048 
   3   2.0000     -10.358478      -281.8685 
   4   2.0000     -10.222620      -278.1716 
   5   2.0000     -10.222609      -278.1713 
   6   2.0000      -1.140556       -31.0361 
   7   2.0000      -1.059287       -28.8247 
   8   2.0000      -1.027302       -27.9543 
   9   2.0000      -0.755838       -20.5674 
  10   2.0000      -0.692430       -18.8420 
  11   2.0000      -0.582128       -15.8405 
  12   2.0000      -0.547641       -14.9021 
  13   2.0000      -0.509709       -13.8699 
  14   2.0000      -0.503564       -13.7027 
  15   2.0000      -0.460622       -12.5342 
  16   2.0000      -0.449232       -12.2242 
  17   2.0000      -0.440130       -11.9766 
  18   2.0000      -0.402756       -10.9595 
  19   2.0000      -0.375480       -10.2173 
  20   2.0000      -0.363047        -9.8790 
  21   2.0000      -0.322752        -8.7825 
  22   2.0000      -0.312676        -8.5083 
  23   2.0000      -0.307885        -8.3780 
  24   0.0000       0.014260         0.3880 
  25   0.0000       0.040429         1.1001 
  26   0.0000       0.068171         1.8550 
  27   0.0000       0.070855         1.9281 
  28   0.0000       0.107931         2.9370 
  29   0.0000       0.112350         3.0572 
  30   0.0000       0.124397         3.3850 
  31   0.0000       0.127813         3.4780 
  32   0.0000       0.129552         3.5253 
  33   0.0000       0.177657         4.8343 
  34   0.0000       0.186611         5.0779 
*Only the first 10 virtual orbitals were printed.

                    ********************************
                    * MULLIKEN POPULATION ANALYSIS *
                    ********************************

-----------------------
MULLIKEN ATOMIC CHARGES
-----------------------
   0 O :   -0.287103
   1 O :   -0.287094
   2 O :   -0.424521
   3 C :    0.505456
   4 C :   -0.186818
   5 C :   -0.186820
   6 H :    0.140735
   7 H :    0.151996
   8 H :    0.140740
   9 H :    0.151969
  10 H :    0.140722
  11 H :    0.140738
Sum of atomic charges:   -0.0000000

--------------------------------
MULLIKEN REDUCED ORBITAL CHARGES
--------------------------------
  0 O s       :     3.766306  s :     3.766306
      pz      :     1.734302  p :     4.479803
      px      :     1.179107
      py      :     1.566393
      dz2     :     0.004594  d :     0.038925
      dxz     :     0.006046
      dyz     :     0.004255
      dx2y2   :     0.007282
      dxy     :     0.016748
      f0      :     0.000275  f :     0.002070
      f+1     :     0.000396
      f-1     :     0.000175
      f+2     :     0.000072
      f-2     :     0.000255
      f+3     :     0.000415
      f-3     :     0.000483

  1 O s       :     3.766294  s :     3.766294
      pz      :     1.734296  p :     4.479800
      px      :     1.179101
      py      :     1.566404
      dz2     :     0.004594  d :     0.038930
      dxz     :     0.006047
      dyz     :     0.004256
      dx2y2   :     0.007284
      dxy     :     0.016749
      f0      :     0.000275  f :     0.002070
      f+1     :     0.000396
      f-1     :     0.000175
      f+2     :     0.000072
      f-2     :     0.000255
      f+3     :     0.000415
      f-3     :     0.000483

  2 O s       :     3.815063  s :     3.815063
      pz      :     1.488184  p :     4.579197
      px      :     1.772788
      py      :     1.318225
      dz2     :     0.002621  d :     0.028458
      dxz     :     0.000109
      dyz     :     0.010139
      dx2y2   :     0.008339
      dxy     :     0.007249
      f0      :     0.000199  f :     0.001803
      f+1     :     0.000025
      f-1     :     0.000188
      f+2     :     0.000433
      f-2     :     0.000013
      f+3     :     0.000524
      f-3     :     0.000421

  3 C s       :     2.989250  s :     2.989250
      pz      :     0.782493  p :     2.191375
      px      :     0.675286
      py      :     0.733596
      dz2     :     0.009777  d :     0.283301
      dxz     :     0.045577
      dyz     :     0.070942
      dx2y2   :     0.058893
      dxy     :     0.098113
      f0      :     0.003417  f :     0.030618
      f+1     :     0.001352
      f-1     :     0.001694
      f+2     :     0.002902
      f-2     :     0.004331
      f+3     :     0.011819
      f-3     :     0.005103

  4 C s       :     3.268183  s :     3.268183
      pz      :     1.087152  p :     2.833264
      px      :     0.747906
      py      :     0.998206
      dz2     :     0.007081  d :     0.077739
      dxz     :     0.020091
      dyz     :     0.015509
      dx2y2   :     0.014057
      dxy     :     0.021001
      f0      :     0.000952  f :     0.007632
      f+1     :     0.000457
      f-1     :     0.001473
      f+2     :     0.000566
      f-2     :     0.000882
      f+3     :     0.001804
      f-3     :     0.001498

  5 C s       :     3.268154  s :     3.268154
      pz      :     1.087152  p :     2.833280
      px      :     0.747924
      py      :     0.998205
      dz2     :     0.007080  d :     0.077752
      dxz     :     0.020095
      dyz     :     0.015511
      dx2y2   :     0.014059
      dxy     :     0.021007
      f0      :     0.000952  f :     0.007634
      f+1     :     0.000457
      f-1     :     0.001473
      f+2     :     0.000566
      f-2     :     0.000883
      f+3     :     0.001804
      f-3     :     0.001498

  6 H s       :     0.838855  s :     0.838855
      pz      :     0.010213  p :     0.020409
      px      :     0.003156
      py      :     0.007041

  7 H s       :     0.827441  s :     0.827441
      pz      :     0.004456  p :     0.020563
      px      :     0.008523
      py      :     0.007585

  8 H s       :     0.838851  s :     0.838851
      pz      :     0.010218  p :     0.020409
      px      :     0.003153
      py      :     0.007038

  9 H s       :     0.827472  s :     0.827472
      pz      :     0.004454  p :     0.020559
      px      :     0.008521
      py      :     0.007584

 10 H s       :     0.838868  s :     0.838868
      pz      :     0.010213  p :     0.020409
      px      :     0.003156
      py      :     0.007040

 11 H s       :     0.838849  s :     0.838849
      pz      :     0.010219  p :     0.020413
      px      :     0.003155
      py      :     0.007039



                     *******************************
                     * LOEWDIN POPULATION ANALYSIS *
                     *******************************

----------------------
LOEWDIN ATOMIC CHARGES
----------------------
   0 O :    0.214444
   1 O :    0.214480
   2 O :    0.032829
   3 C :   -0.568355
   4 C :   -0.299801
   5 C :   -0.299883
   6 H :    0.115731
   7 H :    0.121685
   8 H :    0.115731
   9 H :    0.121718
  10 H :    0.115728
  11 H :    0.115694

-------------------------------
LOEWDIN REDUCED ORBITAL CHARGES
-------------------------------
  0 O s       :     3.270248  s :     3.270248
      pz      :     1.600674  p :     4.404335
      px      :     1.251952
      py      :     1.551709
      dz2     :     0.010904  d :     0.104439
      dxz     :     0.018055
      dyz     :     0.006855
      dx2y2   :     0.025472
      dxy     :     0.043153
      f0      :     0.000601  f :     0.006534
      f+1     :     0.000900
      f-1     :     0.000309
      f+2     :     0.000174
      f-2     :     0.000986
      f+3     :     0.002083
      f-3     :     0.001482

  1 O s       :     3.270206  s :     3.270206
      pz      :     1.600653  p :     4.404322
      px      :     1.251959
      py      :     1.551710
      dz2     :     0.010905  d :     0.104456
      dxz     :     0.018059
      dyz     :     0.006857
      dx2y2   :     0.025477
      dxy     :     0.043158
      f0      :     0.000601  f :     0.006536
      f+1     :     0.000900
      f-1     :     0.000309
      f+2     :     0.000174
      f-2     :     0.000986
      f+3     :     0.002084
      f-3     :     0.001482

  2 O s       :     3.415038  s :     3.415038
      pz      :     1.391816  p :     4.482540
      px      :     1.613484
      py      :     1.477240
      dz2     :     0.008319  d :     0.063615
      dxz     :     0.000118
      dyz     :     0.014437
      dx2y2   :     0.026123
      dxy     :     0.014619
      f0      :     0.000464  f :     0.005977
      f+1     :     0.000088
      f-1     :     0.001007
      f+2     :     0.000867
      f-2     :     0.000056
      f+3     :     0.001561
      f-3     :     0.001935

  3 C s       :     2.746231  s :     2.746231
      pz      :     0.773487  p :     2.594689
      px      :     0.843688
      py      :     0.977514
      dz2     :     0.074211  d :     1.044325
      dxz     :     0.121210
      dyz     :     0.201979
      dx2y2   :     0.251063
      dxy     :     0.395862
      f0      :     0.010394  f :     0.183111
      f+1     :     0.010156
      f-1     :     0.013743
      f+2     :     0.021067
      f-2     :     0.024742
      f+3     :     0.072278
      f-3     :     0.030732

  4 C s       :     2.868181  s :     2.868181
      pz      :     1.116352  p :     3.017923
      px      :     0.846433
      py      :     1.055138
      dz2     :     0.049144  d :     0.360441
      dxz     :     0.059964
      dyz     :     0.074350
      dx2y2   :     0.060782
      dxy     :     0.116201
      f0      :     0.005688  f :     0.053256
      f+1     :     0.006800
      f-1     :     0.004659
      f+2     :     0.006546
      f-2     :     0.005182
      f+3     :     0.012518
      f-3     :     0.011862

  5 C s       :     2.868154  s :     2.868154
      pz      :     1.116353  p :     3.017949
      px      :     0.846459
      py      :     1.055138
      dz2     :     0.049149  d :     0.360510
      dxz     :     0.059983
      dyz     :     0.074361
      dx2y2   :     0.060792
      dxy     :     0.116226
      f0      :     0.005690  f :     0.053270
      f+1     :     0.006801
      f-1     :     0.004660
      f+2     :     0.006547
      f-2     :     0.005184
      f+3     :     0.012524
      f-3     :     0.011863

  6 H s       :     0.822618  s :     0.822618
      pz      :     0.031157  p :     0.061651
      px      :     0.009260
      py      :     0.021235

  7 H s       :     0.817548  s :     0.817548
      pz      :     0.013499  p :     0.060767
      px      :     0.023391
      py      :     0.023877

  8 H s       :     0.822617  s :     0.822617
      pz      :     0.031171  p :     0.061652
      px      :     0.009253
      py      :     0.021227

  9 H s       :     0.817539  s :     0.817539
      pz      :     0.013491  p :     0.060742
      px      :     0.023383
      py      :     0.023869

 10 H s       :     0.822624  s :     0.822624
      pz      :     0.031155  p :     0.061649
      px      :     0.009259
      py      :     0.021234

 11 H s       :     0.822634  s :     0.822634
      pz      :     0.031179  p :     0.061672
      px      :     0.009260
      py      :     0.021234



                      *****************************
                      * MAYER POPULATION ANALYSIS *
                      *****************************

  NA   - Mulliken gross atomic population
  ZA   - Total nuclear charge
  QA   - Mulliken gross atomic charge
  VA   - Mayer's total valence
  BVA  - Mayer's bonded valence
  FA   - Mayer's free valence

  ATOM       NA         ZA         QA         VA         BVA        FA
  0 O      8.2871     8.0000    -0.2871     2.0893     2.0893     0.0000
  1 O      8.2871     8.0000    -0.2871     2.0893     2.0893    -0.0000
  2 O      8.4245     8.0000    -0.4245     2.0678     2.0678    -0.0000
  3 C      5.4945     6.0000     0.5055     4.3376     4.3376    -0.0000
  4 C      6.1868     6.0000    -0.1868     3.8207     3.8207    -0.0000
  5 C      6.1868     6.0000    -0.1868     3.8207     3.8207    -0.0000
  6 H      0.8593     1.0000     0.1407     0.9643     0.9643    -0.0000
  7 H      0.8480     1.0000     0.1520     0.9604     0.9604     0.0000
  8 H      0.8593     1.0000     0.1407     0.9643     0.9643     0.0000
  9 H      0.8480     1.0000     0.1520     0.9604     0.9604    -0.0000
 10 H      0.8593     1.0000     0.1407     0.9643     0.9643    -0.0000
 11 H      0.8593     1.0000     0.1407     0.9643     0.9643    -0.0000

  Mayer bond orders larger than 0.100000
B(  0-O ,  3-C ) :   1.2038 B(  0-O ,  4-C ) :   0.8756 B(  1-O ,  3-C ) :   1.2038 
B(  1-O ,  5-C ) :   0.8757 B(  2-O ,  3-C ) :   1.9014 B(  4-C ,  6-H ) :   0.9710 
B(  4-C ,  7-H ) :   0.9609 B(  4-C ,  8-H ) :   0.9710 B(  5-C ,  9-H ) :   0.9609 
B(  5-C , 10-H ) :   0.9710 B(  5-C , 11-H ) :   0.9710 

-------
TIMINGS
-------

Total SCF time: 0 days 0 hours 0 min 3 sec 

Total time                  ....       3.921 sec
Sum of individual times     ....       3.908 sec  ( 99.7%)

SCF preparation             ....       0.543 sec  ( 13.8%)
Fock matrix formation       ....       3.115 sec  ( 79.5%)
  Startup                   ....       0.010 sec  (  0.3% of F)
  Split-RI-J                ....       0.222 sec  (  7.1% of F)
  Chain of spheres X        ....       2.013 sec  ( 64.6% of F)
  XC integration            ....       0.446 sec  ( 14.3% of F)
    Basis function eval.    ....       0.115 sec  ( 25.8% of XC)
    Density eval.           ....       0.095 sec  ( 21.4% of XC)
    XC-Functional eval.     ....       0.020 sec  (  4.4% of XC)
    XC-Potential eval.      ....       0.147 sec  ( 33.1% of XC)
  CPCM terms                ....       0.384 sec  ( 12.3% of F)
Diagonalization             ....       0.000 sec  (  0.0%)
Density matrix formation    ....       0.026 sec  (  0.7%)
Total Energy calculation    ....       0.022 sec  (  0.6%)
Population analysis         ....       0.012 sec  (  0.3%)
Orbital Transformation      ....       0.023 sec  (  0.6%)
Orbital Orthonormalization  ....       0.000 sec  (  0.0%)
DIIS solution               ....       0.107 sec  (  2.7%)
SOSCF solution              ....       0.060 sec  (  1.5%)
Finished LeanSCF after   3.9 sec

Maximum memory used throughout the entire LEANSCF-calculation: 19.7 MB
[ga00:2736181] 19 more processes have sent help message help-mpi-btl-openib.txt / error in device init
[ga00:2736181] Set MCA parameter "orte_base_help_aggregate" to 0 to see all help / error messages

-------------------------   --------------------
FINAL SINGLE POINT ENERGY      -343.586408204016
-------------------------   --------------------

--------------------------------------------------------------------------
WARNING: There was an error initializing an OpenFabrics device.

  Local host:   ga00
  Local device: mlx5_0
--------------------------------------------------------------------------


           ************************************************************
           *        Program running with 20 parallel MPI-processes    *
           *              working on a common directory               *
           ************************************************************
------------------------------------------------------------------------------
                         ORCA SCF GRADIENT CALCULATION
------------------------------------------------------------------------------

Nuc. rep. gradient        (SHARK) ... done (  0.0 sec)
HCore & Overlap gradient  (SHARK) ... done (  0.0 sec)
Split-RIJ-J gradient      (SHARK) ... done (  0.1 sec)
COSX-gradient                     ... done (  1.3 sec)
XC gradient                       ... done (  0.2 sec)
CPCM gradient                     ... done (  0.2 sec)

------------------
CARTESIAN GRADIENT
------------------

   1   O   :   -0.024336694   -0.008307732   -0.000029430
   2   O   :    0.024369636   -0.008280549   -0.000029941
   3   O   :    0.000020548    0.029572773   -0.000047004
   4   C   :   -0.000008283   -0.001816970    0.000135506
   5   C   :    0.010136030   -0.007149668   -0.000020730
   6   C   :   -0.010248442   -0.007052089   -0.000076572
   7   H   :   -0.000730971    0.000062908    0.003510651
   8   H   :   -0.006995050    0.001437372    0.000002003
   9   H   :   -0.000733096    0.000069329   -0.003506875
  10   H   :    0.007053969    0.001376567   -0.000010308
  11   H   :    0.000734442    0.000070051    0.003512121
  12   H   :    0.000737912    0.000018007   -0.003439421

Difference to translation invariance:
           :   -0.0000000000   -0.0000000000   -0.0000000000

Difference to rotation invariance:
           :    0.0000008269   -0.0000000813   -0.0000011290

Norm of the Cartesian gradient     ...    0.0516124590
RMS gradient                       ...    0.0086020765
MAX gradient                       ...    0.0295727734

-------
TIMINGS
-------

Total SCF gradient time     ....        1.805 sec

Densities                   ....       0.001 sec  (  0.1%)
One electron gradient       ....       0.015 sec  (  0.8%)
RI-J Coulomb gradient       ....       0.123 sec  (  6.8%)
COSX gradient               ....       1.314 sec  ( 72.8%)
XC gradient                 ....       0.162 sec  (  9.0%)
CPCM gradient               ....       0.188 sec  ( 10.4%)
   A-Matrix (El+Nuc)        ....       0.037 sec  (  2.1%)
   Potential                ....       0.151 sec  (  8.4%)

Maximum memory used throughout the entire SCFGRAD-calculation: 24.5 MB
[ga00:2736334] 19 more processes have sent help message help-mpi-btl-openib.txt / error in device init
[ga00:2736334] Set MCA parameter "orte_base_help_aggregate" to 0 to see all help / error messages
------------------------------------------------------------------------------
                         ORCA GEOMETRY RELAXATION STEP
------------------------------------------------------------------------------

Reading the OPT-File                    .... done
Getting information on internals        .... done
Copying old internal coords+grads       .... done
Making the new internal coordinates     .... (2022 redundants) done
Validating the new internal coordinates .... (2022 redundants) done
Calculating the B-matrix                .... done
Calculating the G,G- and P matrices     .... done
Transforming gradient to internals      .... done
Projecting the internal gradient        .... done
Number of atoms                         ....  12
Number of internal coordinates          ....  38
Current Energy                          ....  -343.586408204 Eh
Current gradient norm                   ....     0.051612459 Eh/bohr
Maximum allowed component of the step   ....  0.300
Current trust radius                    ....  0.300
Evaluating the initial hessian          ....  (Almloef) done
Projecting the Hessian                  .... done
Forming the augmented Hessian           .... done
Diagonalizing the augmented Hessian     .... done
Last element of RFO vector              ....  0.996425561
Lowest eigenvalues of augmented Hessian:
 -0.004045927  0.018226425  0.018238462  0.028118084  0.028118088
Length of the computed step             ....  0.084778483
The final length of the internal step   ....  0.084778483
Converting the step to Cartesian space:
 Initial RMS(Int)=    0.0137528859
Transforming coordinates:
 Iter   0:  RMS(Cart)=    0.0248801218 RMS(Int)=    1.4410994057
done
Storing new coordinates                 .... done

                                .--------------------.
          ----------------------|Geometry convergence|-------------------------
          Item                value                   Tolerance       Converged
          ---------------------------------------------------------------------
          RMS gradient        0.0082879644            0.0000300000      NO
          MAX gradient        0.0295727857            0.0001000000      NO
          RMS step            0.0137528859            0.0006000000      NO
          MAX step            0.0425162985            0.0010000000      NO
          ........................................................
          Max(Bonds)      0.0225      Max(Angles)    1.51
          Max(Dihed)        0.11      Max(Improp)    0.00
          ---------------------------------------------------------------------

The optimization has not yet converged - more geometry cycles are needed


    ---------------------------------------------------------------------------
                         Redundant Internal Coordinates
                            (Angstroem and degrees)

        Definition                    Value    dE/dq     Step     New-Value
    ----------------------------------------------------------------------------
     1. B(C   3,O   1)                1.3625  0.026474 -0.0225    1.3400   
     2. B(C   3,O   2)                1.2236  0.029573 -0.0151    1.2085   
     3. B(C   3,O   0)                1.3625  0.026495 -0.0225    1.3400   
     4. B(C   4,O   0)                1.4314 -0.004131  0.0045    1.4359   
     5. B(C   5,O   1)                1.4313 -0.004174  0.0046    1.4359   
     6. B(H   6,C   4)                1.0942  0.002989 -0.0044    1.0898   
     7. B(H   7,C   4)                1.0932  0.004090 -0.0060    1.0872   
     8. B(H   8,C   4)                1.0942  0.002990 -0.0044    1.0898   
     9. B(H   9,C   5)                1.0933  0.004174 -0.0061    1.0872   
    10. B(H  10,C   5)                1.0943  0.002994 -0.0044    1.0898   
    11. B(H  11,C   5)                1.0941  0.002906 -0.0043    1.0898   
    12. A(C   3,O   0,C   4)          115.58  0.000696   -0.10    115.48   
    13. A(C   3,O   1,C   5)          115.57  0.000677   -0.09    115.48   
    14. A(O   1,C   3,O   2)          125.99 -0.001583    0.20    126.20   
    15. A(O   0,C   3,O   1)          108.00  0.003124   -0.40    107.60   
    16. A(O   0,C   3,O   2)          126.00 -0.001541    0.20    126.20   
    17. A(O   0,C   4,H   7)          108.12  0.008729   -1.51    106.61   
    18. A(O   0,C   4,H   6)          110.24 -0.001642    0.26    110.51   
    19. A(H   6,C   4,H   8)          110.72  0.001448   -0.28    110.44   
    20. A(O   0,C   4,H   8)          110.25 -0.001622    0.26    110.51   
    21. A(H   7,C   4,H   8)          108.73 -0.003393    0.62    109.35   
    22. A(H   6,C   4,H   7)          108.72 -0.003398    0.62    109.34   
    23. A(H   9,C   5,H  10)          108.72 -0.003393    0.62    109.34   
    24. A(O   1,C   5,H  10)          110.25 -0.001632    0.26    110.51   
    25. A(O   1,C   5,H  11)          110.25 -0.001611    0.26    110.51   
    26. A(O   1,C   5,H   9)          108.12  0.008719   -1.51    106.61   
    27. A(H  10,C   5,H  11)          110.71  0.001444   -0.28    110.44   
    28. A(H   9,C   5,H  11)          108.72 -0.003406    0.63    109.34   
    29. D(O   2,C   3,O   1,C   5)     -0.00  0.000037   -0.07     -0.07   
    30. D(O   0,C   3,O   1,C   5)    179.95 -0.000060    0.11    180.06   
    31. D(O   1,C   3,O   0,C   4)   -179.95  0.000060   -0.11   -180.06   
    32. D(O   2,C   3,O   0,C   4)      0.00 -0.000037    0.07      0.07   
    33. D(H   7,C   4,O   0,C   3)    180.00  0.000007   -0.00    180.00   
    34. D(H   8,C   4,O   0,C   3)     61.26 -0.000189    0.00     61.26   
    35. D(H   6,C   4,O   0,C   3)    -61.28  0.000183    0.00    -61.28   
    36. D(H  11,C   5,O   1,C   3)    -61.27  0.000180    0.00    -61.26   
    37. D(H  10,C   5,O   1,C   3)     61.28 -0.000182   -0.00     61.28   
    38. D(H   9,C   5,O   1,C   3)   -179.99  0.000001    0.00   -179.99   
    ----------------------------------------------------------------------------

Geometry step timings:
Preparation and reading OPT file:      0.000 s (11.163 %)
Internal coordinates            :      0.000 s ( 1.953 %)
B/P matrices and projection     :      0.000 s (24.651 %)
Hessian update/contruction      :      0.000 s (12.465 %)
Making the step                 :      0.000 s (18.047 %)
Converting the step to Cartesian:      0.000 s ( 4.558 %)
Storing new data                :      0.000 s ( 1.674 %)
Checking convergence            :      0.000 s ( 0.186 %)
Final printing                  :      0.000 s (24.558 %)
Total time                      :      0.001 s
--------------------------------------------------------------------------
WARNING: There was an error initializing an OpenFabrics device.

  Local host:   ga00
  Local device: mlx5_0
--------------------------------------------------------------------------
[ga00:2736455] 19 more processes have sent help message help-mpi-btl-openib.txt / error in device init
[ga00:2736455] Set MCA parameter "orte_base_help_aggregate" to 0 to see all help / error messages

Time for energy+gradient        :      8.736 s
Time for complete geometry iter :      9.478 s

         *************************************************************
         *                GEOMETRY OPTIMIZATION CYCLE   2            *
         *************************************************************
---------------------------------
CARTESIAN COORDINATES (ANGSTROEM)
---------------------------------
  O     -1.081347   -0.691710   -0.000871
  O      1.081334   -0.691718   -0.000872
  O      0.000029    1.308143   -0.000717
  C     -0.000015    0.099659   -0.001673
  C     -2.345354   -0.010461   -0.000210
  C      2.345311   -0.010500   -0.000203
  H     -2.448113    0.602666    0.894917
  H     -3.113249   -0.780028    0.000318
  H     -2.449116    0.602540   -0.895302
  H      3.113205   -0.780088    0.000266
  H      2.448150    0.602603    0.894931
  H      2.449165    0.602494   -0.895285

----------------------------
CARTESIAN COORDINATES (A.U.)
----------------------------
  NO LB      ZA    FRAG     MASS         X           Y           Z
   0 O     8.0000    0    15.999   -2.043449   -1.307143   -0.001646
   1 O     8.0000    0    15.999    2.043425   -1.307157   -0.001648
   2 O     8.0000    0    15.999    0.000054    2.472032   -0.001354
   3 C     6.0000    0    12.011   -0.000028    0.188329   -0.003162
   4 C     6.0000    0    12.011   -4.432077   -0.019768   -0.000396
   5 C     6.0000    0    12.011    4.431995   -0.019843   -0.000384
   6 H     1.0000    0     1.008   -4.626262    1.138873    1.691149
   7 H     1.0000    0     1.008   -5.883188   -1.474040    0.000602
   8 H     1.0000    0     1.008   -4.628159    1.138636   -1.691876
   9 H     1.0000    0     1.008    5.883106   -1.474152    0.000502
  10 H     1.0000    0     1.008    4.626334    1.138754    1.691175
  11 H     1.0000    0     1.008    4.628251    1.138548   -1.691843

--------------------------------
INTERNAL COORDINATES (ANGSTROEM)
--------------------------------
 O      0   0   0     0.000000000000     0.00000000     0.00000000
 O      1   0   0     2.162680364163     0.00000000     0.00000000
 O      2   1   0     2.273469694783    61.60014051     0.00000000
 C      3   2   1     1.208484043453    28.40174784   359.91399508
 C      1   2   3     1.435902464968   151.67731670   359.94884091
 C      2   1   3     1.435860364616   151.67744429     0.05186174
 H      5   1   2     1.089832916264   110.50524750   298.79836330
 H      5   1   2     1.087150718194   106.61480490   180.07008151
 H      5   1   2     1.089829203017   110.50527157    61.33693740
 H      6   2   1     1.087164679964   106.61460555   179.93261568
 H      6   2   1     1.089833517024   110.50862805    61.20389268
 H      6   2   1     1.089825340317   110.50921722   298.66037596

---------------------------
INTERNAL COORDINATES (A.U.)
---------------------------
 O      0   0   0     0.000000000000     0.00000000     0.00000000
 O      1   0   0     4.086873603477     0.00000000     0.00000000
 O      2   1   0     4.296235096910    61.60014051     0.00000000
 C      3   2   1     2.283703879340    28.40174784   359.91399508
 C      1   2   3     2.713462413811   151.67731670   359.94884091
 C      2   1   3     2.713382855677   151.67744429     0.05186174
 H      5   1   2     2.059485743472   110.50524750   298.79836330
 H      5   1   2     2.054417123683   106.61480490   180.07008151
 H      5   1   2     2.059478726453   110.50527157    61.33693740
 H      6   2   1     2.054443507605   106.61460555   179.93261568
 H      6   2   1     2.059486878744   110.50862805    61.20389268
 H      6   2   1     2.059471427007   110.50921722   298.66037596

--------------------------------------------------------------------------
WARNING: There was an error initializing an OpenFabrics device.

  Local host:   ga00
  Local device: mlx5_0
--------------------------------------------------------------------------


           ************************************************************
           *        Program running with 20 parallel MPI-processes    *
           *              working on a common directory               *
           ************************************************************
------------------------------------------------------------------------------
                   ___                                                        
                  /   \      - P O W E R E D   B Y -                         
                 /     \                                                     
                 |  |  |   _    _      __       _____    __    __             
                 |  |  |  | |  | |    /  \     |  _  \  |  |  /  |          
                  \  \/   | |  | |   /    \    | | | |  |  | /  /          
                 / \  \   | |__| |  /  /\  \   | |_| |  |  |/  /          
                |  |  |   |  __  | /  /__\  \  |    /   |      \           
                |  |  |   | |  | | |   __   |  |    \   |  |\   \          
                \     /   | |  | | |  |  |  |  | |\  \  |  | \   \       
                 \___/    |_|  |_| |__|  |__|  |_| \__\ |__|  \__/        
                                                                              
                      - O R C A' S   B I G   F R I E N D -                    
                                      &                                       
                       - I N T E G R A L  F E E D E R -                       
                                                                              
 v1 FN, 2020, v2 2021, v3 2022-2024                                           
------------------------------------------------------------------------------


----------------------
SHARK INTEGRAL PACKAGE
----------------------

Number of atoms                             ...     12
Number of basis functions                   ...    222
Number of shells                            ...     90
Maximum angular momentum                    ...      3
Integral batch strategy                     ... SHARK/LIBINT Hybrid
RI-J (if used) integral strategy            ... SPLIT-RIJ (Revised 2003 algorithm where possible)
Printlevel                                  ...      1
Contraction scheme used                     ... SEGMENTED contraction
Prescreening option                         ... SCHWARTZ
   Thresh                                   ... 2.500e-11
   Tcut                                     ... 2.500e-12
   Tpresel                                  ... 2.500e-12 
Coulomb Range Separation                    ... NOT USED
Exchange Range Separation                   ... NOT USED
Multipole approximations                    ... NOT USED
Finite Nucleus Model                        ... NOT USED
CABS basis                                  ... NOT available
Auxiliary Coulomb fitting basis             ... AVAILABLE
   # of basis functions in Aux-J            ...    360
   # of shells in Aux-J                     ...    120
   Maximum angular momentum in Aux-J        ...      4
Auxiliary J/K fitting basis                 ... NOT available
Auxiliary Correlation fitting basis         ... NOT available
Auxiliary 'external' fitting basis          ... NOT available

Checking pre-screening integrals            ... done (  0.0 sec) Dimension = 90
Check shell pair data                       ... done (  0.0 sec)
Shell pair information
Shell pair cut-off parameter TPreSel        ...   2.5e-12
Total number of shell pairs                 ...      4095
Shell pairs after pre-screening             ...      3766
Total number of primitive shell pairs       ...     12396
Primitive shell pairs kept                  ...      8783
          la=0 lb=0:   1038 shell pairs
          la=1 lb=0:   1066 shell pairs
          la=1 lb=1:    282 shell pairs
          la=2 lb=0:    538 shell pairs
          la=2 lb=1:    274 shell pairs
          la=2 lb=2:     77 shell pairs
          la=3 lb=0:    262 shell pairs
          la=3 lb=1:    138 shell pairs
          la=3 lb=2:     70 shell pairs
          la=3 lb=3:     21 shell pairs

Calculating one electron integrals          ... done (  0.0 sec)
Calculating RI/J V-Matrix + Cholesky decomp.... done (  0.0 sec)
Calculating Nuclear repulsion               ... done (  0.0 sec) ENN=    251.315235016114 Eh

Diagonalization of the overlap matrix:
Smallest eigenvalue                        ... 8.963e-04
Time for diagonalization                   ...    0.004 sec
Threshold for overlap eigenvalues          ... 1.000e-07
Number of eigenvalues below threshold      ... 0
Time for construction of square roots      ...    0.003 sec
Total time needed                          ...    0.007 sec

[...]
      f+2     :     0.002983
      f-2     :     0.004684
      f+3     :     0.013235
      f-3     :     0.005281

  4 C s       :     3.269797  s :     3.269797
      pz      :     1.089989  p :     2.827476
      px      :     0.736059
      py      :     1.001428
      dz2     :     0.006723  d :     0.076049
      dxz     :     0.019342
      dyz     :     0.015046
      dx2y2   :     0.013727
      dxy     :     0.021211
      f0      :     0.000902  f :     0.007447
      f+1     :     0.000454
      f-1     :     0.001477
      f+2     :     0.000598
      f-2     :     0.000816
      f+3     :     0.001834
      f-3     :     0.001366

  5 C s       :     3.269797  s :     3.269797
      pz      :     1.089989  p :     2.827476
      px      :     0.736050
      py      :     1.001437
      dz2     :     0.006723  d :     0.076049
      dxz     :     0.019343
      dyz     :     0.015046
      dx2y2   :     0.013727
      dxy     :     0.021211
      f0      :     0.000902  f :     0.007447
      f+1     :     0.000454
      f-1     :     0.001477
      f+2     :     0.000598
      f-2     :     0.000816
      f+3     :     0.001834
      f-3     :     0.001366

  6 H s       :     0.837230  s :     0.837230
      pz      :     0.010243  p :     0.020501
      px      :     0.003127
      py      :     0.007131

  7 H s       :     0.829259  s :     0.829259
      pz      :     0.004415  p :     0.020721
      px      :     0.007943
      py      :     0.008364

  8 H s       :     0.837230  s :     0.837230
      pz      :     0.010245  p :     0.020501
      px      :     0.003127
      py      :     0.007129

  9 H s       :     0.829258  s :     0.829258
      pz      :     0.004415  p :     0.020721
      px      :     0.007942
      py      :     0.008364

 10 H s       :     0.837230  s :     0.837230
      pz      :     0.010243  p :     0.020501
      px      :     0.003127
      py      :     0.007131

 11 H s       :     0.837230  s :     0.837230
      pz      :     0.010245  p :     0.020501
      px      :     0.003127
      py      :     0.007129



                     *******************************
                     * LOEWDIN POPULATION ANALYSIS *
                     *******************************

----------------------
LOEWDIN ATOMIC CHARGES
----------------------
   0 O :    0.231398
   1 O :    0.231399
   2 O :    0.040845
   3 C :   -0.641222
   4 C :   -0.282019
   5 C :   -0.282019
   6 H :    0.115324
   7 H :    0.120161
   8 H :    0.115324
   9 H :    0.120161
  10 H :    0.115324
  11 H :    0.115324

-------------------------------
LOEWDIN REDUCED ORBITAL CHARGES
-------------------------------
  0 O s       :     3.257590  s :     3.257590
      pz      :     1.590099  p :     4.397356
      px      :     1.254331
      py      :     1.552926
      dz2     :     0.011086  d :     0.106803
      dxz     :     0.018425
      dyz     :     0.007063
      dx2y2   :     0.027113
      dxy     :     0.043115
      f0      :     0.000628  f :     0.006853
      f+1     :     0.000921
      f-1     :     0.000323
      f+2     :     0.000190
      f-2     :     0.001025
      f+3     :     0.002216
      f-3     :     0.001551

  1 O s       :     3.257589  s :     3.257589
      pz      :     1.590099  p :     4.397356
      px      :     1.254331
      py      :     1.552926
      dz2     :     0.011087  d :     0.106803
      dxz     :     0.018426
      dyz     :     0.007063
      dx2y2   :     0.027113
      dxy     :     0.043115
      f0      :     0.000628  f :     0.006853
      f+1     :     0.000921
      f-1     :     0.000323
      f+2     :     0.000190
      f-2     :     0.001025
      f+3     :     0.002216
      f-3     :     0.001551

  2 O s       :     3.401178  s :     3.401178
      pz      :     1.393411  p :     4.486241
      px      :     1.608670
      py      :     1.484160
      dz2     :     0.008368  d :     0.065349
      dxz     :     0.000143
      dyz     :     0.015055
      dx2y2   :     0.026137
      dxy     :     0.015646
      f0      :     0.000500  f :     0.006388
      f+1     :     0.000099
      f-1     :     0.001047
      f+2     :     0.000931
      f-2     :     0.000073
      f+3     :     0.001735
      f-3     :     0.002003

  3 C s       :     2.729976  s :     2.729976
      pz      :     0.772568  p :     2.613786
      px      :     0.852839
      py      :     0.988378
      dz2     :     0.076432  d :     1.097047
      dxz     :     0.132357
      dyz     :     0.212929
      dx2y2   :     0.265974
      dxy     :     0.409355
      f0      :     0.011202  f :     0.200413
      f+1     :     0.010647
      f-1     :     0.014063
      f+2     :     0.022715
      f-2     :     0.028198
      f+3     :     0.081074
      f-3     :     0.032513

  4 C s       :     2.868985  s :     2.868985
      pz      :     1.119655  p :     3.011331
      px      :     0.833739
      py      :     1.057937
      dz2     :     0.047582  d :     0.350186
      dxz     :     0.057578
      dyz     :     0.072772
      dx2y2   :     0.057393
      dxy     :     0.114862
      f0      :     0.005254  f :     0.051517
      f+1     :     0.006615
      f-1     :     0.004569
      f+2     :     0.006492
      f-2     :     0.004739
      f+3     :     0.012450
      f-3     :     0.011398

  5 C s       :     2.868985  s :     2.868985
      pz      :     1.119654  p :     3.011331
      px      :     0.833734
      py      :     1.057942
      dz2     :     0.047582  d :     0.350186
      dxz     :     0.057580
      dyz     :     0.072769
      dx2y2   :     0.057393
      dxy     :     0.114862
      f0      :     0.005254  f :     0.051517
      f+1     :     0.006615
      f-1     :     0.004569
      f+2     :     0.006492
      f-2     :     0.004739
      f+3     :     0.012450
      f-3     :     0.011398

  6 H s       :     0.822156  s :     0.822156
      pz      :     0.031510  p :     0.062520
      px      :     0.009343
      py      :     0.021667

  7 H s       :     0.818217  s :     0.818217
      pz      :     0.013730  p :     0.061623
      px      :     0.021731
      py      :     0.026161

  8 H s       :     0.822156  s :     0.822156
      pz      :     0.031514  p :     0.062520
      px      :     0.009344
      py      :     0.021663

  9 H s       :     0.818217  s :     0.818217
      pz      :     0.013730  p :     0.061623
      px      :     0.021731
      py      :     0.026162

 10 H s       :     0.822156  s :     0.822156
      pz      :     0.031510  p :     0.062520
      px      :     0.009344
      py      :     0.021667

 11 H s       :     0.822156  s :     0.822156
      pz      :     0.031514  p :     0.062520
      px      :     0.009344
      py      :     0.021663



                      *****************************
                      * MAYER POPULATION ANALYSIS *
                      *****************************

  NA   - Mulliken gross atomic population
  ZA   - Total nuclear charge
  QA   - Mulliken gross atomic charge
  VA   - Mayer's total valence
  BVA  - Mayer's bonded valence
  FA   - Mayer's free valence

  ATOM       NA         ZA         QA         VA         BVA        FA
  0 O      8.2867     8.0000    -0.2867     2.0905     2.0905     0.0000
  1 O      8.2867     8.0000    -0.2867     2.0905     2.0905     0.0000
  2 O      8.4269     8.0000    -0.4269     2.0650     2.0650     0.0000
  3 C      5.5073     6.0000     0.4927     4.3843     4.3843    -0.0000
  4 C      6.1808     6.0000    -0.1808     3.8126     3.8126     0.0000
  5 C      6.1808     6.0000    -0.1808     3.8126     3.8126     0.0000
  6 H      0.8577     1.0000     0.1423     0.9649     0.9649     0.0000
  7 H      0.8500     1.0000     0.1500     0.9628     0.9628    -0.0000
  8 H      0.8577     1.0000     0.1423     0.9649     0.9649     0.0000
  9 H      0.8500     1.0000     0.1500     0.9628     0.9628     0.0000
 10 H      0.8577     1.0000     0.1423     0.9649     0.9649     0.0000
 11 H      0.8577     1.0000     0.1423     0.9649     0.9649     0.0000

  Mayer bond orders larger than 0.100000
B(  0-O ,  3-C ) :   1.2236 B(  0-O ,  4-C ) :   0.8672 B(  1-O ,  3-C ) :   1.2236 
B(  1-O ,  5-C ) :   0.8672 B(  2-O ,  3-C ) :   1.9095 B(  4-C ,  6-H ) :   0.9705 
B(  4-C ,  7-H ) :   0.9627 B(  4-C ,  8-H ) :   0.9705 B(  5-C ,  9-H ) :   0.9627 
B(  5-C , 10-H ) :   0.9705 B(  5-C , 11-H ) :   0.9705 

-------
TIMINGS
-------

Total SCF time: 0 days 0 hours 0 min 1 sec 

Total time                  ....       1.865 sec
Sum of individual times     ....       1.851 sec  ( 99.3%)

SCF preparation             ....       0.551 sec  ( 29.6%)
Fock matrix formation       ....       1.210 sec  ( 64.9%)
  Startup                   ....       0.004 sec  (  0.3% of F)
  Split-RI-J                ....       0.064 sec  (  5.3% of F)
  Chain of spheres X        ....       0.921 sec  ( 76.1% of F)
  XC integration            ....       0.119 sec  (  9.8% of F)
    Basis function eval.    ....       0.027 sec  ( 23.1% of XC)
    Density eval.           ....       0.025 sec  ( 20.6% of XC)
    XC-Functional eval.     ....       0.005 sec  (  4.1% of XC)
    XC-Potential eval.      ....       0.038 sec  ( 32.1% of XC)
  CPCM terms                ....       0.094 sec  (  7.7% of F)
Diagonalization             ....       0.000 sec  (  0.0%)
Density matrix formation    ....       0.007 sec  (  0.4%)
Total Energy calculation    ....       0.007 sec  (  0.4%)
Population analysis         ....       0.021 sec  (  1.1%)
Orbital Transformation      ....       0.012 sec  (  0.6%)
Orbital Orthonormalization  ....       0.000 sec  (  0.0%)
DIIS solution               ....       0.015 sec  (  0.8%)
SOSCF solution              ....       0.028 sec  (  1.5%)
Finished LeanSCF after   1.9 sec

Maximum memory used throughout the entire LEANSCF-calculation: 20.6 MB
[ga00:2740174] 19 more processes have sent help message help-mpi-btl-openib.txt / error in device init
[ga00:2740174] Set MCA parameter "orte_base_help_aggregate" to 0 to see all help / error messages

-------------------------   --------------------
FINAL SINGLE POINT ENERGY      -343.589219606976
-------------------------   --------------------

                                *** OPTIMIZATION RUN DONE ***

--------------------------------------------------------------------------
WARNING: There was an error initializing an OpenFabrics device.

  Local host:   ga00
  Local device: mlx5_0
--------------------------------------------------------------------------


           ************************************************************
           *        Program running with 20 parallel MPI-processes    *
           *              working on a common directory               *
           ************************************************************

------------------------------------------------------------------------------
                              ORCA PROPERTY CALCULATIONS
------------------------------------------------------------------------------

GBWName                                 ... DMC.gbw
Number of atoms                         ...     12
Number of basis functions               ...    222
Max core memory                         ...   5000 MB

Electric properties:
Dipole moment                           ... YES
Quadrupole moment                       ...  NO
Static polarizability (Dipole/Dipole)   ...  NO
Static polarizability (Dipole/Quad.)    ...  NO
Static polarizability (Quad./Quad.)     ...  NO
Static polarizability (Velocity)        ...  NO

Atomic electric properties:
Dipole moment                           ...  NO
Quadrupole moment                       ...  NO
Static polarizability                   ...  NO

Choice of electric origin               ... Center of mass
Position of electric origin             ...    -0.000001     0.017579    -0.000739

General magnetic properties:
Magnetizability                         ...  NO

EPR properties:
g-Tensor (aka g-matrix)                 ...  NO
Zero-Field splitting spin-orbit         ...  NO
Zero-field splitting spin-spin          ...  NO
Hyperfine couplings                     ...  NO (   0 nuclei)
Quadrupole couplings                    ...  NO (   0 nuclei)
Contact density                         ...  NO (   0 nuclei)

NMR properties:
Chemical shifts                         ...  NO (   0 nuclei)
Spin-rotation constants                 ...  NO (   0 nuclei)
Spin-spin couplings                     ...  NO (   0 nuclei,    0 pairs)

Choice of magnetic origin               ... GIAO
Position of magnetic origin             ...     0.000000     0.000000     0.000000

Properties with geometric perturbations:
SCF Hessian                             ...  NO
IR spectrum                             ...  NO
VCD spectrum                            ...  NO
X-ray spectroscopy properties:
SCF XES/XAS/RIXS spectra                ...  NO


-------------
DIPOLE MOMENT
-------------

Method             : SCF
Type of density    : Electron Density
Multiplicity       :   1
Irrep              :   0
Energy             :  -343.5892196069759166 Eh
Relativity type    : 
Basis              : AO
                                X                 Y                 Z
Electronic contribution:     -0.000009538      -1.001341769       0.000025613
Nuclear contribution   :      0.000005833       0.728067107      -0.000005257
                        -----------------------------------------
Total Dipole Moment    :     -0.000003705      -0.273274662       0.000020356
                        -----------------------------------------
Magnitude (a.u.)       :      0.273274663
Magnitude (Debye)      :      0.694608991



--------------------
Rotational spectrum 
--------------------
 
Rotational constants in cm-1:             0.348039             0.077612             0.065033 
Rotational constants in MHz :         10433.938749          2326.752069          1949.634751 

Dipole components along the rotational axes: 
x,y,z [a.u.] :    -0.000001    -0.273275    -0.000004 
x,y,z [Debye]:    -0.000002    -0.694609    -0.000009 

 

Dipole moment calculation done in   0.0 sec 

Maximum memory used throughout the entire PROP-calculation: 10.5 MB
[ga00:2740284] 19 more processes have sent help message help-mpi-btl-openib.txt / error in device init
[ga00:2740284] Set MCA parameter "orte_base_help_aggregate" to 0 to see all help / error messages
--------------------------------------------------------------------------
WARNING: There was an error initializing an OpenFabrics device.

  Local host:   ga00
  Local device: mlx5_0
--------------------------------------------------------------------------
[ga00:2740399] 19 more processes have sent help message help-mpi-btl-openib.txt / error in device init
[ga00:2740399] Set MCA parameter "orte_base_help_aggregate" to 0 to see all help / error messages

--------------------------------
SUGGESTED CITATIONS FOR THIS RUN
--------------------------------

Below you find a list of papers that are relevant to this ORCA run
We neither can nor want to force you to cite these papers, but we appreciate if you do
You receive ORCA, which is the product of decades of hard work by many enthusiastic individuals, for free
The only thing we kindly ask in return is that you cite our papers,
We deeply appreciate it, if you show your appreciation for ORCA by not just citing the generic ORCA reference.

Please note that relegating all ORCA citations to the supporting information does *not* help us.
SI sections are not indexed - citations you put there will not count into any citation statistics
But we need these citations in order to attract the funding resources that allow us to do what we are doing

Therefore, if you are a happy ORCA user, please consider citing a few of the papers listed below in the main body of your paper

In addition to the list printed below, the program has created the file DMC.bibtex that contains the list in bibtex format
You can import this file easily into all common literature databanks and citation aid programs


List of essential papers. We consider these as the minimum necessary citations

  1. Neese,F.
     Software update: the ORCA program system, version 5.0
     WIRES Comput. Molec. Sci., 2022 12(1)e1606
     doi.org/10.1002/wcms.1606

List of papers to cite with high priority. The work reported in these papers was absolutely
necessary for this run to complete.
Our perspective: the developers of density functionals and basis sets usually get cited in chemistry papers
Good! But without the algorithms to do something with them, the functionals or basis sets would not do anything.
Hence, in our opinion, the algorithm design and method developments papers are equally worthy of getting cited

  1. Neese,F.
     An improvement of the resolution of the identity approximation for the formation of the Coulomb matrix
     J. Comp. Chem., 2003 24(14)1740-1747
     doi.org/10.1002/jcc.10318
  2. Neese,F.; Wennmohs,F.; Hansen,A.; Becker,U.
     Efficient, approximate and parallel Hartree-Fock and hybrid DFT calculations. A 'chain-of-spheres' algorithm for the Hartree-Fock exchange
     Chem. Phys., 2009 356(1-3)98-109
     doi.org/10.1016/j.chemphys.2008.10.036
  3. Garcia-Rates,M.; Neese,F.
     Effect of the Solute Cavity on the Solvation Energy and its Derivatives within the Framework of the Gaussian Charge Scheme
     J. Comput. Chem., 2020 41 922-939
     doi.org/10.1002/jcc.26139
  4. Helmich-Paris,B.; de Souza,B.; Neese,F.; Izsák,R.
     An improved chain of spheres for exchange algorithm
     J. Chem. Phys., 2021 155 104109
     doi.org/doi: 10.1063/5.0058766.
  5. Neese,F.
     The SHARK Integral Generation and Digestion System
     J. Comp. Chem., 2022  1-16
     doi.org/10.1002/jcc.26942

List of suggested additional citations. These are papers that are important in the 'surrounding' of 
of this run, or papers that preceded the highly important papers. If you like your results we are grateful for a citation.

  1. Izsak,R.; Neese,F.
     An overlap fitted chain of spheres exchange method
     J. Chem. Phys., 2011 135 144105
     doi.org/10.1063/1.3646921
  2. Izsak,R.; Hansen,A.; Neese,F.
     The resolution of identity and chain of spheres approximations for the LPNO-CCSD singles Fock term
     Molec. Phys., 2012 110 2413-2417
     doi.org/10.1080/00268976.2012.687466
  3. Neese,F.
     The ORCA program system
     WIRES Comput. Molec. Sci., 2012 2(1)73-78
     doi.org/10.1002/wcms.81
  4. Izsak,R.; Neese,F.; Klopper,W.
     Robust fitting techniques in the chain of spheres approximation to the Fock exchange: The role of the complementary space
     J. Chem. Phys., 2013 139 
     doi.org/10.1063/1.4819264
  5. Neese,F.
     Software update: the ORCA program system, version 4.0
     WIRES Comput. Molec. Sci., 2018 8(1)1-6
     doi.org/10.1002/wcms.1327
  6. Neese,F.; Wennmohs,F.; Becker,U.; Riplinger,C.
     The ORCA quantum chemistry program package
     J. Chem. Phys., 2020 152 Art. No. L224108
     doi.org/10.1063/5.0004608

List of optional additional citations

  1. Neese,F.
     Approximate second-order SCF convergence for spin unrestricted wavefunctions
     Chem. Phys. Lett., 2000 325(1-3)93-98
     doi.org/10.1016/s0009-2614(00)00662-x

Timings for individual modules:

Sum of individual times          ...       58.700 sec (=   0.978 min)
Startup calculation              ...        9.090 sec (=   0.151 min)  15.5 %
SCF iterations                   ...       30.775 sec (=   0.513 min)  52.4 %
Property calculations            ...        0.922 sec (=   0.015 min)   1.6 %
SCF Gradient evaluation          ...       17.899 sec (=   0.298 min)  30.5 %
Geometry relaxation              ...        0.014 sec (=   0.000 min)   0.0 %
                             ****ORCA TERMINATED NORMALLY****
TOTAL RUN TIME: 0 days 0 hours 1 minutes 4 seconds 476 msec
