
                                 *****************
                                 * O   R   C   A *
                                 *****************

                                            #,                                       
                                            ###                                      
                                            ####                                     
                                            #####                                    
                                            ######                                   
                                           ########,                                 
                                     ,,################,,,,,                         
                               ,,#################################,,                 
                          ,,##########################################,,             
                       ,#########################################, ''#####,          
                    ,#############################################,,   '####,        
                  ,##################################################,,,,####,       
                ,###########''''           ''''###############################       
              ,#####''   ,,,,##########,,,,          '''####'''          '####       
            ,##' ,,,,###########################,,,                        '##       
           ' ,,###''''                  '''############,,,                           
         ,,##''                                '''############,,,,        ,,,,,,###''
      ,#''                                            '''#######################'''  
     '                                                          ''''####''''         
             ,#######,   #######,   ,#######,      ##                                
            ,#'     '#,  ##    ##  ,#'     '#,    #''#        ,####,   ,####,        
            ##       ##  ##   ,#'  ##            #'  '#       #'       #'  '#        
            ##       ##  #######   ##           ,######,      #####,   #    #        
            '#,     ,#'  ##    ##  '#,     ,#' ,#      #,     #,   #   #,  ,#        
             '#######'   ##     ##  '#######'  #'      '#     '####' # '####'        



                #########################################################
                #                        -***-                          #
                #          Department of theory and spectroscopy        #
                #                                                       #
                #                      Frank Neese                      #
                #                                                       #
                #     Directorship, Architecture, Infrastructure        #
                #                    SHARK, DRIVERS                     #
                #        Core code/Algorithms in most modules           #
                #                                                       #
                #        Max Planck Institute fuer Kohlenforschung      #
                #                Kaiser Wilhelm Platz 1                 #
                #                 D-45470 Muelheim/Ruhr                 #
                #                      Germany                          #
                #                                                       #
                #                  All rights reserved                  #
                #                        -***-                          #
                #########################################################


                         Program Version 6.0.1  -  RELEASE   -


 With contributions from (in alphabetic order):
[Max-Planck-Institut fuer Kohlenforschung]                               
  Daniel Aravena         : Magnetic Suceptibility                        
  Michael Atanasov       : Ab Initio Ligand Field Theory (pilot matlab implementation)
  Alexander A. Auer      : GIAO ZORA, VPT2 properties, NMR spectrum      
  Ute Becker             : All parallelization in ORCA, NUMFREQ, NUMCALC 
  Giovanni Bistoni       : ED, misc. LED, open-shell LED, HFLD           
  Martin Brehm           : Molecular dynamics                            
  Dmytro Bykov           : pre 5.0 version of the SCF Hessian            
  Marcos Casanova-Páez   : Triplet and SCS-CIS(D). UHF-(DLPNO)-IP/EA/STEOM-CCSD. UHF-CVS-IP/STEOM-CCSD   
  Vijay G. Chilkuri      : MRCI spin determinant printing, contributions to CSF-ICE 
  Pauline Colinet        : FMM embedding                                 
  Dipayan Datta          : RHF DLPNO-CCSD density                        
  Achintya Kumar Dutta   : EOM-CC, STEOM-CC                              
  Nicolas Foglia         : Exact transition moments, OPA infrastructure, MCD improvements    
  Dmitry Ganyushin       : Spin-Orbit,Spin-Spin,Magnetic field MRCI      
  Miquel Garcia-Rates    : C-PCM and meta-GGA Hessian, CCSD/C-PCM, Gaussian charge scheme 
  Tiago L. C. Gouveia    : GS-ROHF, GS-ROCIS                             
  Yang Guo               : DLPNO-NEVPT2, F12-NEVPT2, CIM, IAO-localization        
  Andreas Hansen         : Spin unrestricted coupled pair/coupled cluster methods 
  Ingolf Harden          : AUTO-CI MPn and infrastructure                
  Benjamin Helmich-Paris : MC-RPA, TRAH-(SCF,CASSCF), AVAS, COSX integrals, SCF dyn. polar. 
  Lee Huntington         : MR-EOM, pCC                                   
  Robert Izsak           : Overlap fitted RIJCOSX, COSX-SCS-MP3, EOM     
  Riya Kayal             : Wick's Theorem for AUTO-CI, AUTO-CI UHF-CCSDT 
  Emily Kempfer          : AUTO-CI, RHF CISDT and CCSDT                  
  Christian Kollmar      : KDIIS, OOCD, Brueckner-CCSD(T), CCSD density, CASPT2, CASPT2-K, improved NEVPT2 
  Axel Koslowski         : Symmetry handling                             
  Simone Kossmann        : meta-GGA functionals, TD-DFT gradient, OOMP2, (MP2 Hessian; deprecated post 5.0) 
  Lucas Lang             : DCDCAS                                        
  Marvin Lechner         : AUTO-CI (C++ implementation), FIC-MRCC        
  Spencer Leger          : CASSCF response                               
  Dagmar Lenk            : GEPOL surface, SMD, ORCA-2-JSON               
  Dimitrios Liakos       : Extrapolation schemes; Compound Job, initial MDCI parallelization 
  Dimitrios Manganas     : Further ROCIS development; embedding schemes. LFT, Crystal Embedding 
  Dimitrios Pantazis     : SARC Basis sets                               
  Anastasios Papadopoulos: AUTO-CI, single reference methods and gradients 
  Taras Petrenko         : pre 6.0 DFT Hessian and TD-DFT gradient, (ASA, deprecated), ECA, 1-Electron XAS/XES, NRVS 
  Peter Pinski           : DLPNO-MP2, DLPNO-MP2 Gradient                 
  Christoph Reimann      : Effective Core Potentials                     
  Marius Retegan         : Local ZFS, SOC                                
  Christoph Riplinger    : Optimizer, TS searches, QM/MM, DLPNO-CCSD(T), (RO)-DLPNO pert. Triples 
  Michael Roemelt        : Original ROCIS implementation                 
  Masaaki Saitow         : Open-shell DLPNO-CCSD energy and density      
  Barbara Sandhoefer     : DKH picture change effects                    
  Kantharuban Sivalingam : CASSCF convergence/infrastructure, NEVPT2 and variants, FIC-MRCI 
  Bernardo de Souza      : ESD, SOC TD-DFT                               
  Georgi L. Stoychev     : AutoAux, RI-MP2 NMR, DLPNO-MP2 response, X2C  
  Van Anh Tran           : RI-MP2 g-tensors                              
  Willem Van den Heuvel  : Paramagnetic NMR                              
  Zikuan Wang            : NOTCH, Electric field optimization            
  Frank Wennmohs         : Technical directorship and infrastructure     
  Hang Xu                : AUTO-CI-Response properties                   
                                                                         
[FACCTs GmbH]                                                            
  Markus Bursch, Miquel Garcia-Rates, Christoph Riplinger, Bernardo de Souza, Georgi L. Stoychev 
                                                                 
  APM, Basis sets (HGBS, AHGBS, def-TZVP (Ac-Lr), def2-XVPD (La-Lu)), CI-OPT, improved COSX, DLPNO-Multilevel,           
  DOCKER, DRACO, updates on ESD, GOAT, IRC, LR-CPCM, MBIS, meta-GGA TD-DFT gradient, ML-optimized integration grids, 
  MM, NACMEs, nearIR, NEB, NEB-TS, NL-DFT gradient (VV10), 2- and 3-layer-ONIOM, interface openCOSMO-RS, QMMM,   
  Crystal-QMMM, SF, symmetry and pop. for TD-DFT, r2SCAN hybrids, SOLVATOR                                   
                                                                         
[Other institutions]                                                     
  V. Asgeirsson          : NEB                                           
  Christoph Bannwarth    : sTDA-DFT, sTD-DFT, PBEh-3c, B97-3c, D3        
  Sebastian Ehlert       : rSCAN, r2SCAN, r2SCAN-3c, D4, dhf basis sets  
  Marvin Friede          : D4 for Fr, Ra, Ac-Lr                          
  Lars Goerigk           : TD-DFT with DH, B97 family of functionals     
  Stefan Grimme          : VdW corrections, initial TS optimization, DFT functionals, gCP, sTDA/sTD-DF 
  Waldemar Hujo          : DFT-NL                                        
  H. Jonsson             : NEB                                           
  Holger Kruse           : gCP                                           
  Marcel Mueller         : wB97X-3c, vDZP basis set                      
  Hagen Neugebauer       : wr2SCAN                                       
  Tobias Risthaus        : range-separated hybrid DFT                    
  Lukas Wittmann         : regularized MP2, r2SCAN double-hybrids, wr2SCAN        
                                                                         
We gratefully acknowledge several colleagues who have allowed us to      
interface, adapt or use parts of their codes:                            
  Ed Valeev, F. Pavosevic, A. Kumar             : LibInt (2-el integral package), F12 methods 
  Garnet Chan, S. Sharma, J. Yang, R. Olivares  : DMRG                   
  Ulf Ekstrom                                   : XCFun DFT Library      
  Mihaly Kallay                                 : mrcc  (arbitrary order and MRCC methods)
  Frank Weinhold                                : gennbo (NPA and NBO analysis)           
  Simon Mueller                                 : openCOSMO-RS                            
  Christopher J. Cramer and Donald G. Truhlar   : smd solvation model                     
  S Lehtola, MJT Oliveira, MAL Marques          : LibXC Library                           
  Liviu Ungur et al                             : ANISO software                          


 Your calculation uses the libint2 library for the computation of 2-el integrals
 For citations please refer to: http://libint.valeyev.net

 Your ORCA version has been built with support for libXC version: 6.2.2
 For citations please refer to: https://libxc.gitlab.io

 This ORCA versions uses:
   CBLAS   interface :  Fast vector & matrix operations
   LAPACKE interface :  Fast linear algebra routines
   SCALAPACK package :  Parallel linear algebra routines
   Shared memory     :  Shared parallel matrices
   BLAS/LAPACK       :  OpenBLAS 0.3.27  USE64BITINT DYNAMIC_ARCH NO_AFFINITY SkylakeX SINGLE_THREADED
        Core in use  :  SkylakeX
   Copyright (c) 2011-2014, The OpenBLAS Project


NOTE: MaxCore=5000 MB was set to SCF,MP2,MDCI,CIPSI,MRCI and CIS
      => If you want to overwrite this, your respective input block should be placed after the MaxCore statement
Warning: RI is on but no J-basis has been assigned. Assigning Def2/J (nothing to worry about!)
================================================================================

----- Orbital basis set information -----
Your calculation utilizes the basis: def2-TZVP
   F. Weigend and R. Ahlrichs, Phys. Chem. Chem. Phys. 7, 3297 (2005).

----- AuxJ basis set information -----
Your calculation utilizes the auxiliary basis: def2/J
   F. Weigend, Phys. Chem. Chem. Phys. 8, 1057 (2006).

================================================================================
                                        WARNINGS
                       Please study these warnings very carefully!
================================================================================


WARNING: Geometry Optimization
  ===> : Switching off AutoStart
         For restart on a previous wavefunction, please use MOREAD

================================================================================
                                       INPUT FILE
================================================================================
NAME = honokiol2-opt_FEC2.inp
|  1> ! OPT B3LYP def2-TZVP TightSCF
|  2> 
|  3> %maxcore 5000
|  4> 
|  5> %pal
|  6> nprocs 4
|  7> end
|  8> 
|  9> * xyz 0 1
| 10> O           1.63307109871013      1.90133267595694      2.13423136656460
| 11>   O          -3.61904202280199     -1.55793505159403      2.05586153939697
| 12>   C           1.49523183389881      0.20618369339977      0.38251701064465
| 13>   C           0.15182620674862     -0.27458921231098      0.81200045622027
| 14>   C          -2.24696895759067     -0.46278790367486      0.37335788271457
| 15>   C          -0.96805770823724     -0.04838741770611      0.00879677967811
| 16>   C           3.37169823506747      0.05907723059074     -1.18440206295330
| 17>   C           2.11788052226007     -0.35283108253935     -0.73490725938574
| 18>   C           2.15855482996406      1.23956028497096      1.06519600882712
| 19>   C          -0.02822813738121     -0.96813420607987      2.01042393316180
| 20>   C          -2.39138061785460     -1.15537738893825      1.58374413284728
| 21>   C          -3.44224802874592     -0.11946005851428     -0.49291266533112
| 22>   C           4.01973584701785     -0.59386973632637     -2.39124628567919
| 23>   C           4.00984007426481      1.07634634374578     -0.47696142264043
| 24>   C          -1.28694714014059     -1.41521024862611      2.38771188438388
| 25>   C           3.41344932117801      1.66190091151351      0.63068354944255
| 26>   C          -4.22603637164543     -1.32227008662625     -0.94883272781194
| 27>   C           3.18990164861639     -0.50511253390550     -3.64205441931481
| 28>   C          -5.53042204509332     -1.50601795721899     -0.76056323153344
| 29>   C           2.78094539513122     -1.54225712665084     -4.36285188236356
| 30>   H          -0.85501629211357      0.51028920608765     -0.91194297414592
| 31>   H           1.59989714016388     -1.14289480584013     -1.26684590307261
| 32>   H           0.82418668998492     -1.17361462159422      2.64657210225320
| 33>   H          -4.10850814944439      0.56775338847685      0.03967867774730
| 34>   H          -3.07801044835635      0.42326625006712     -1.36919145385912
| 35>   H           4.23635485704778     -1.64579048348405     -2.17881758619879
| 36>   H           4.98512363820345     -0.10783130581003     -2.56774422369930
| 37>   H           4.98985205618705      1.41700834934222     -0.79221192688317
| 38>   H          -1.42684362664918     -1.97107843851385      3.30605208849476
| 39>   H           3.91186953059548      2.45104425993330      1.17994386664385
| 40>   H          -3.65363255010581     -2.08785642754491     -1.46683392495612
| 41>   H           2.91233412638100      0.49941947342304     -3.95228371999198
| 42>   H           0.75850104144271      1.56681325870173      2.39177832766455
| 43>   H          -4.23418797148437     -1.66490011917712      1.31348999025950
| 44>   H          -6.03689558256141     -2.39202116798997     -1.12220150517901
| 45>   H          -6.14377877201477     -0.76207325470432     -0.26165624082977
| 46>   H           2.18590687748005     -1.41216793835556     -5.25820751002159
| 47>   H           3.02989437564419     -2.56106595364983     -4.08490610692371
| 48>   H          -4.99989999596977      1.00341343495476      3.34933119780391
| 49>   H          -3.68223372764868     -0.54674780306864      4.66641602913071
| 50>   O          -2.19884854472072      0.87256466081651      4.90853446168207
| 51>   C          -3.57980840454543      0.49031453886580      4.98385352210224
| 52>   C          -4.26057280359365      1.44761692272517      4.01126171442610
| 53>   C          -2.00602105862256      1.67367732910507      3.84667844083141
| 54>   O          -0.95562864456468      2.07497102235163      3.46361021501614
| 55>   O          -3.20255367027099      1.96095963797769      3.24867352522486
| 56>   F          -4.86922109596146      2.48253891570074      4.68670424616263
| 57>   H          -3.93406418130151      0.62797937343778      6.00273106495014
| 58>   H           1.11842593910038      5.96289951911815     -0.90484241174364
| 59>   H           2.02890000527350      4.41932380346125     -0.89076816179529
| 60>   C           1.04045993801246      4.87850695189322     -0.86962265184851
| 61>   F          -0.53530024704793      5.45583569005228      0.82582036670095
| 62>   C           0.21030168856023      4.41141370368813      0.32353270967404
| 63>   H           0.76358042301026      3.95653569762500      1.14162005202382
| 64>   O           0.28831488267171      4.42075546579098     -2.00314229439391
| 65>   O          -0.65930057404977      3.46042922796111     -0.23259301754691
| 66>   C          -0.65644721792050      3.54875411637706     -1.59763080062177
| 67>   O          -1.37637188157796      2.92686674123230     -2.30898030074948
| 68> *
| 69> 
| 70>                          ****END OF INPUT****
================================================================================

                       *****************************
                       * Geometry Optimization Run *
                       *****************************

Geometry optimization settings:
Update method            Update   .... BFGS
Choice of coordinates    CoordSys .... (2022) Redundant Internals
Initial Hessian          InHess   .... Almloef's Model
Max. no of cycles        MaxIter  .... 174

Convergence Tolerances:
Energy Change            TolE     ....  5.0000e-06 Eh
Max. Gradient            TolMAXG  ....  3.0000e-04 Eh/bohr
RMS Gradient             TolRMSG  ....  1.0000e-04 Eh/bohr
Max. Displacement        TolMAXD  ....  4.0000e-03 bohr
RMS Displacement         TolRMSD  ....  2.0000e-03 bohr
Strict Convergence                .... False

------------------------------------------------------------------------------
                        ORCA OPTIMIZATION COORDINATE SETUP
------------------------------------------------------------------------------

The optimization will be done in redundant internal coordinates (2022)
Making redundant internal coordinates   ...  (2022 redundants) done
Evaluating the initial hessian          ...  (Almloef) done
Evaluating the coordinates              ...  done
Calculating the B-matrix                .... done
Calculating the G-matrix                .... done
Diagonalizing the G-matrix              .... done
Small eigenvalue found = 3.081e-03
Small eigenvalue found = 4.324e-03
Small eigenvalue found = 9.360e-03
Small eigenvalue found = 1.098e-02
Small eigenvalue found = 1.834e-02
Small eigenvalue found = 1.955e-02
Small eigenvalue found = 2.207e-02
Small eigenvalue found = 2.715e-02
The first mode is                       ....  219
The number of degrees of freedom        ....  168

    -----------------------------------------------------------------
                    Redundant Internal Coordinates


    -----------------------------------------------------------------
         Definition                    Initial Value    Approx d2E/dq
    -----------------------------------------------------------------
      1. B(C   3,C   2)                  1.4901         0.432581   
      2. B(C   5,C   4)                  1.3929         0.618113   
      3. B(C   5,C   3)                  1.3966         0.609868   
      4. B(C   7,C   2)                  1.3960         0.611168   
      5. B(C   7,C   6)                  1.3942         0.615247   
      6. B(C   8,C   2)                  1.4050         0.591384   
      7. B(C   8,O   0)                  1.3627         0.618662   
      8. B(C   9,C   3)                  1.3963         0.610511   
      9. B(C  10,C   4)                  1.4020         0.597878   
     10. B(C  10,O   1)                  1.3755         0.590135   
     11. B(C  11,C   4)                  1.5156         0.393894   
     12. B(C  12,C   6)                  1.5175         0.391149   
     13. B(C  13,C   6)                  1.3937         0.616253   
     14. B(C  14,C   9)                  1.3880         0.629360   
     15. B(C  14,C  10)                  1.3906         0.623518   
     16. B(C  15,C   8)                  1.3935         0.616741   
     17. B(C  15,C  13)                  1.3876         0.630330   
     18. B(C  16,C  11)                  1.5063         0.407558   
     19. B(C  17,C  12)                  1.5037         0.411515   
     20. B(C  18,C  16)                  1.3307         0.777011   
     21. B(C  19,C  17)                  1.3276         0.785831   
     22. B(H  20,C   5)                  1.0829         0.369624   
     23. B(H  21,C   7)                  1.0842         0.367870   
     24. B(H  22,C   9)                  1.0833         0.369086   
     25. B(H  23,C  11)                  1.0954         0.353076   
     26. B(H  24,C  11)                  1.0932         0.355892   
     27. B(H  25,C  12)                  1.0948         0.353806   
     28. B(H  26,C  12)                  1.0952         0.353348   
     29. B(H  27,C  13)                  1.0844         0.367626   
     30. B(H  28,C  14)                  1.0825         0.370095   
     31. B(H  29,C  15)                  1.0830         0.369500   
     32. B(H  30,C  16)                  1.0872         0.363768   
     33. B(H  31,C  17)                  1.0874         0.363598   
     34. B(H  32,O   0)                  0.9711         0.499113   
     35. B(H  33,O   1)                  0.9700         0.501143   
     36. B(H  34,C  18)                  1.0827         0.369850   
     37. B(H  35,C  18)                  1.0856         0.365943   
     38. B(H  36,C  19)                  1.0829         0.369626   
     39. B(H  37,C  19)                  1.0850         0.366790   
     40. B(H  39,O   1)                  2.8003         0.000602   
     41. B(C  41,O  40)                  1.4349         0.474565   
     42. B(C  41,H  39)                  1.0894         0.360917   
     43. B(C  42,C  41)                  1.5251         0.380419   
     44. B(C  42,H  38)                  1.0872         0.363780   
     45. B(C  43,O  40)                  1.3441         0.662471   
     46. B(O  44,H  32)                  2.0845         0.008353   
     47. B(O  44,C  43)                  1.1879         1.175753   
     48. B(O  45,C  43)                  1.3681         0.606370   
     49. B(O  45,C  42)                  1.4016         0.536263   
     50. B(F  46,C  42)                  1.3776         0.544221   
     51. B(H  47,C  41)                  1.0875         0.363481   
     52. B(C  50,H  49)                  1.0901         0.359973   
     53. B(C  50,H  48)                  1.0878         0.363073   
     54. B(C  52,F  51)                  1.3781         0.543283   
     55. B(C  52,C  50)                  1.5267         0.378065   
     56. B(H  53,H  32)                  2.6970         0.000188   
     57. B(H  53,O   0)                  2.4424         0.002244   
     58. B(H  53,C  52)                  1.0873         0.363642   
     59. B(H  53,F  51)                  2.0087         0.010256   
     60. B(H  53,C   8)                  3.0551         0.000264   
     61. B(O  54,C  50)                  1.4353         0.473784   
     62. B(O  55,C  52)                  1.4035         0.532491   
     63. B(O  55,H  53)                  2.0394         0.009859   
     64. B(O  55,H  20)                  3.0337         0.000256   
     65. B(C  56,O  55)                  1.3679         0.606935   
     66. B(C  56,O  54)                  1.3481         0.652691   
     67. B(C  56,H  20)                  3.1212         0.000207   
     68. B(O  57,H  20)                  2.8396         0.000521   
     69. B(O  57,C  56)                  1.1879         1.175841   
     70. B(O  57,H  24)                  3.1697         0.000155   
     71. A(C   8,O   0,H  53)          103.1266         0.170918   
     72. A(C   8,O   0,H  32)          112.8330         0.367389   
     73. A(H  32,O   0,H  53)           94.4182         0.156256   
     74. A(C  10,O   1,H  33)          109.6076         0.364683   
     75. A(C   7,C   2,C   8)          118.2222         0.429288   
     76. A(C   3,C   2,C   8)          121.5282         0.403684   
     77. A(C   3,C   2,C   7)          120.2403         0.406037   
     78. A(C   2,C   3,C   5)          120.3259         0.405884   
     79. A(C   2,C   3,C   9)          121.5944         0.405960   
     80. A(C   5,C   3,C   9)          118.0775         0.431584   
     81. A(C  10,C   4,C  11)          121.6100         0.397844   
     82. A(C   5,C   4,C  11)          120.4720         0.400180   
     83. A(C   5,C   4,C  10)          117.8719         0.431004   
     84. A(C   3,C   5,H  20)          119.2654         0.353485   
     85. A(C   3,C   5,C   4)          122.5156         0.432545   
     86. A(C   4,C   5,H  20)          118.1552         0.354290   
     87. A(C   7,C   6,C  12)          120.8859         0.399361   
     88. A(C  12,C   6,C  13)          121.4801         0.399476   
     89. A(C   7,C   6,C  13)          117.6296         0.432993   
     90. A(C   6,C   7,H  21)          119.1285         0.353726   
     91. A(C   2,C   7,C   6)          122.7431         0.432349   
     92. A(C   2,C   7,H  21)          118.1277         0.353327   
     93. A(O   0,C   8,C   2)          123.8023         0.427420   
     94. A(O   0,C   8,H  53)           51.1276         0.140055   
     95. A(O   0,C   8,C  15)          116.4035         0.430652   
     96. A(C  15,C   8,H  53)           98.5950         0.140442   
     97. A(C   2,C   8,C  15)          119.7730         0.429988   
     98. A(C   2,C   8,H  53)          116.7881         0.139956   
     99. A(C  14,C   9,H  22)          119.5286         0.355287   
    100. A(C   3,C   9,H  22)          119.7862         0.353461   
    101. A(C   3,C   9,C  14)          120.6787         0.434032   
    102. A(C   4,C  10,C  14)          120.6402         0.431679   
    103. A(O   1,C  10,C   4)          122.1964         0.424652   
    104. A(O   1,C  10,C  14)          117.1120         0.427858   
    105. A(C   4,C  11,C  16)          113.7335         0.372186   
    106. A(H  23,C  11,H  24)          106.3161         0.289408   
    107. A(C  16,C  11,H  24)          109.0979         0.328364   
    108. A(C   4,C  11,H  24)          107.9299         0.326524   
    109. A(C  16,C  11,H  23)          109.3688         0.327934   
    110. A(C   4,C  11,H  23)          110.1156         0.326097   
    111. A(C   6,C  12,C  17)          113.6081         0.372357   
    112. A(C  17,C  12,H  26)          109.0397         0.328499   
    113. A(C   6,C  12,H  26)          108.2796         0.325764   
    114. A(C  17,C  12,H  25)          109.1059         0.328569   
    115. A(C   6,C  12,H  25)          110.0971         0.325833   
    116. A(H  25,C  12,H  26)          106.4561         0.289176   
    117. A(C   6,C  13,C  15)          121.0903         0.434884   
    118. A(C  15,C  13,H  27)          119.2049         0.355141   
    119. A(C   6,C  13,H  27)          119.7046         0.353784   
    120. A(C  10,C  14,H  28)          118.9320         0.354890   
    121. A(C   9,C  14,H  28)          120.8751         0.355451   
    122. A(C   9,C  14,C  10)          120.1928         0.435682   
    123. A(C  13,C  15,H  29)          120.9664         0.355447   
    124. A(C   8,C  15,H  29)          118.4989         0.354136   
    125. A(C   8,C  15,C  13)          120.5337         0.434946   
    126. A(C  11,C  16,H  30)          115.6290         0.329553   
    127. A(C  18,C  16,H  30)          119.0948         0.367381   
    128. A(C  11,C  16,C  18)          125.2757         0.419257   
    129. A(C  12,C  17,C  19)          125.1366         0.420827   
    130. A(C  12,C  17,H  31)          115.6409         0.330054   
    131. A(C  19,C  17,H  31)          119.2210         0.368063   
    132. A(C  16,C  18,H  35)          121.6161         0.367757   
    133. A(C  16,C  18,H  34)          121.6200         0.368428   
    134. A(H  34,C  18,H  35)          116.7420         0.292805   
    135. A(C  17,C  19,H  37)          121.5882         0.368616   
    136. A(C  17,C  19,H  36)          121.6233         0.369104   
    137. A(H  36,C  19,H  37)          116.7881         0.292884   
    138. A(C  56,H  20,O  57)           22.3513         0.097391   
    139. A(C   5,H  20,C  56)          134.0805         0.126505   
    140. A(O  55,H  20,O  57)           45.1240         0.097699   
    141. A(C   5,H  20,O  55)          108.5442         0.127884   
    142. A(C   5,H  20,O  57)          146.9505         0.134693   
    143. A(O  55,H  20,C  56)           25.6311         0.096141   
    144. A(C  11,H  24,O  57)          143.9657         0.123431   
    145. A(O  44,H  32,H  53)           91.3689         0.101304   
    146. A(O   0,H  32,H  53)           64.5422         0.120052   
    147. A(O   0,H  32,O  44)          142.4603         0.179562   
    148. A(C  41,O  40,C  43)          109.7753         0.413311   
    149. A(H  39,C  41,O  40)          109.1960         0.335497   
    150. A(C  42,C  41,H  47)          111.8786         0.325788   
    151. A(O  40,C  41,H  47)          109.2071         0.335892   
    152. A(H  39,C  41,H  47)          111.2784         0.291371   
    153. A(O  40,C  41,C  42)          103.2332         0.377419   
    154. A(H  39,C  41,C  42)          111.7011         0.325409   
    155. A(O  45,C  42,F  46)          108.9738         0.406115   
    156. A(C  41,C  42,F  46)          110.8615         0.384838   
    157. A(H  38,C  42,F  46)          107.7584         0.342290   
    158. A(C  41,C  42,O  45)          103.8823         0.385509   
    159. A(H  38,C  42,O  45)          109.3723         0.342865   
    160. A(H  38,C  42,C  41)          115.8079         0.325832   
    161. A(O  44,C  43,O  45)          124.1556         0.479342   
    162. A(O  40,C  43,O  45)          110.1819         0.431810   
    163. A(O  40,C  43,O  44)          125.6603         0.487238   
    164. A(H  32,O  44,C  43)          144.1527         0.216559   
    165. A(C  42,O  45,C  43)          110.2098         0.415797   
    166. A(C  52,C  50,O  54)          103.5723         0.376907   
    167. A(H  49,C  50,O  54)          108.9960         0.335259   
    168. A(H  48,C  50,O  54)          109.2641         0.335737   
    169. A(H  49,C  50,C  52)          112.2918         0.324937   
    170. A(H  48,C  50,C  52)          111.6705         0.325395   
    171. A(H  48,C  50,H  49)          110.7510         0.291199   
    172. A(H  53,C  52,O  55)          109.2648         0.342438   
    173. A(F  51,C  52,O  55)          108.8277         0.405485   
    174. A(C  50,C  52,O  55)          103.5641         0.384621   
    175. A(F  51,C  52,H  53)          108.5502         0.342170   
    176. A(C  50,C  52,H  53)          116.0589         0.325479   
    177. A(C  50,C  52,F  51)          110.3145         0.384308   
    178. A(C   8,H  53,H  32)           39.1453         0.094695   
    179. A(O   0,H  53,C   8)           25.7458         0.101334   
    180. A(C   8,H  53,C  52)          125.8423         0.128478   
    181. A(O   0,H  53,H  32)           21.0396         0.098137   
    182. A(H  32,H  53,C  52)          135.9292         0.118245   
    183. A(O   0,H  53,C  52)          147.0296         0.152343   
    184. A(C  50,O  54,C  56)          109.6320         0.412100   
    185. A(H  20,O  55,C  56)           80.7616         0.138886   
    186. A(H  20,O  55,C  52)          141.9638         0.137430   
    187. A(C  52,O  55,C  56)          110.5097         0.415344   
    188. A(H  20,C  56,O  57)           65.3767         0.144885   
    189. A(H  20,C  56,O  55)           73.6073         0.137116   
    190. A(H  20,C  56,O  54)          137.7616         0.137914   
    191. A(O  55,C  56,O  57)          124.2303         0.479431   
    192. A(O  54,C  56,O  57)          125.6783         0.485907   
    193. A(O  54,C  56,O  55)          110.0841         0.430730   
    194. A(H  20,O  57,H  24)           43.9871         0.096769   
    195. A(H  24,O  57,C  56)          124.1475         0.140745   
    196. A(H  20,O  57,C  56)           92.2720         0.157086   
    197. D(C   9,C   3,C   2,C   8)    -68.6108         0.012780   
    198. D(C   9,C   3,C   2,C   7)    112.5144         0.012780   
    199. D(C   5,C   3,C   2,C   7)    -66.9365         0.012780   
    200. D(C   5,C   3,C   2,C   8)    111.9383         0.012780   
    201. D(H  20,C   5,C   3,C   9)    178.3910         0.025687   
    202. D(H  20,C   5,C   4,C  11)     -0.8043         0.026428   
    203. D(C   4,C   5,C   3,C   2)   -179.1794         0.025687   
    204. D(H  20,C   5,C   3,C   2)     -2.1390         0.025687   
    205. D(C   4,C   5,C   3,C   9)      1.3507         0.025687   
    206. D(H  20,C   5,C   4,C  10)   -178.3731         0.026428   
    207. D(C   3,C   5,C   4,C  11)    176.2673         0.026428   
    208. D(C   3,C   5,C   4,C  10)     -1.3015         0.026428   
    209. D(H  21,C   7,C   2,C   3)     -0.4462         0.025803   
    210. D(C   6,C   7,C   2,C   3)    179.8451         0.025803   
    211. D(H  21,C   7,C   6,C  12)     -0.7211         0.026169   
    212. D(H  21,C   7,C   6,C  13)   -179.9659         0.026169   
    213. D(C   2,C   7,C   6,C  13)     -0.2600         0.026169   
    214. D(C   6,C   7,C   2,C   8)      0.9336         0.025803   
    215. D(C   2,C   7,C   6,C  12)    178.9848         0.026169   
    216. D(H  21,C   7,C   2,C   8)   -179.3577         0.025803   
    217. D(H  53,C   8,C   2,C   3)    -61.1110         0.026147   
    218. D(C  15,C   8,C   2,C   7)     -1.0110         0.026147   
    219. D(C  15,C   8,C   2,C   3)   -179.9077         0.026147   
    220. D(O   0,C   8,C   2,C   3)     -1.6444         0.026147   
    221. D(C  15,C   8,O   0,H  53)     79.2864         0.033690   
    222. D(H  53,C   8,O   0,H  32)    100.6036         0.033690   
    223. D(C   2,C   8,O   0,H  53)    -99.0307         0.033690   
    224. D(O   0,C   8,C   2,C   7)    177.2524         0.026147   
    225. D(C   2,C   8,O   0,H  32)      1.5730         0.033690   
    226. D(C  15,C   8,O   0,H  32)    179.8900         0.033690   
    227. D(C  14,C   9,C   3,C   2)   -179.5657         0.025744   
    228. D(H  22,C   9,C   3,C   5)    178.9636         0.025744   
    229. D(H  22,C   9,C   3,C   2)     -0.4993         0.025744   
    230. D(C  14,C   9,C   3,C   5)     -0.1028         0.025744   
    231. D(O   1,C  10,C   4,C  11)     -0.2143         0.024633   
    232. D(C  14,C  10,C   4,C  11)   -177.5293         0.024633   
    233. D(O   1,C  10,C   4,C   5)    177.3252         0.024633   
    234. D(C  14,C  10,C   4,C   5)      0.0102         0.024633   
    235. D(C   4,C  10,O   1,H  33)     25.4628         0.027997   
    236. D(C  14,C  10,O   1,H  33)   -157.1324         0.027997   
    237. D(H  24,C  11,C   4,C   5)      2.0046         0.011531   
    238. D(H  23,C  11,C   4,C  10)     63.8249         0.011531   
    239. D(C  16,C  11,C   4,C  10)    -59.3265         0.011531   
    240. D(C  16,C  11,C   4,C   5)    123.1972         0.011531   
    241. D(H  23,C  11,C   4,C   5)   -113.6514         0.011531   
    242. D(H  26,C  12,C   6,C   7)    179.3250         0.011379   
    243. D(H  25,C  12,C   6,C  13)    114.5513         0.011379   
    244. D(H  25,C  12,C   6,C   7)    -64.6642         0.011379   
    245. D(C  17,C  12,C   6,C   7)     58.0389         0.011379   
    246. D(C  17,C  12,C   6,C  13)   -122.7456         0.011379   
    247. D(H  27,C  13,C   6,C  12)      0.2446         0.026260   
    248. D(H  27,C  13,C   6,C   7)    179.4847         0.026260   
    249. D(C  15,C  13,C   6,C  12)   -179.5825         0.026260   
    250. D(C  15,C  13,C   6,C   7)     -0.3424         0.026260   
    251. D(H  28,C  14,C  10,C   4)   -178.6730         0.026921   
    252. D(H  28,C  14,C  10,O   1)      3.8795         0.026921   
    253. D(C   9,C  14,C  10,C   4)      1.1899         0.026921   
    254. D(C   9,C  14,C  10,O   1)   -176.2577         0.026921   
    255. D(H  28,C  14,C   9,H  22)     -0.3504         0.027460   
    256. D(H  28,C  14,C   9,C   3)    178.7184         0.027460   
    257. D(C  10,C  14,C   9,H  22)    179.7894         0.027460   
    258. D(C  10,C  14,C   9,C   3)     -1.1418         0.027460   
    259. D(C  13,C  15,C   8,O   0)   -177.9399         0.028582   
    260. D(H  29,C  15,C  13,C   6)    179.8932         0.027550   
    261. D(C   8,C  15,C  13,H  27)   -179.5817         0.027550   
    262. D(C   8,C  15,C  13,C   6)      0.2463         0.027550   
    263. D(H  29,C  15,C   8,C   2)   -179.2065         0.028582   
    264. D(H  29,C  15,C   8,O   0)      2.4046         0.028582   
    265. D(H  29,C  15,C  13,H  27)      0.0652         0.027550   
    266. D(C  13,C  15,C   8,H  53)   -127.2560         0.028582   
    267. D(C  13,C  15,C   8,C   2)      0.4490         0.028582   
    268. D(H  30,C  16,C  11,H  23)   -178.2967         0.012308   
    269. D(C  18,C  16,C  11,C   4)    124.9856         0.012308   
    270. D(C  18,C  16,C  11,H  23)      1.4271         0.012308   
    271. D(H  30,C  16,C  11,C   4)    -54.7381         0.012308   
    272. D(C  18,C  16,C  11,H  24)   -114.4762         0.012308   
    273. D(H  31,C  17,C  12,H  25)    179.9986         0.012539   
    274. D(H  31,C  17,C  12,C   6)     56.7513         0.012539   
    275. D(C  19,C  17,C  12,H  26)    116.3412         0.012539   
    276. D(C  19,C  17,C  12,H  25)      0.4485         0.012539   
    277. D(C  19,C  17,C  12,C   6)   -122.7987         0.012539   
    278. D(H  35,C  18,C  16,H  30)   -179.0888         0.043361   
    279. D(H  35,C  18,C  16,C  11)      1.1963         0.043361   
    280. D(H  34,C  18,C  16,H  30)     -0.8463         0.043361   
    281. D(H  34,C  18,C  16,C  11)    179.4387         0.043361   
    282. D(H  37,C  19,C  17,C  12)     -0.0505         0.044455   
    283. D(H  36,C  19,C  17,H  31)      0.6311         0.044455   
    284. D(H  36,C  19,C  17,C  12)   -179.8337         0.044455   
    285. D(H  37,C  19,C  17,H  31)   -179.5857         0.044455   
    286. D(O  55,H  20,C   5,C   4)     99.6324         0.141206   
    287. D(C  56,H  20,C   5,C   3)    -80.1621         0.141206   
    288. D(O  55,H  20,C   5,C   3)    -77.5370         0.141206   
    289. D(O  57,H  20,C   5,C   4)     67.7405         0.141206   
    290. D(O  57,H  20,C   5,C   3)   -109.4290         0.141206   
    291. D(O  57,H  24,C  11,H  23)     63.4873         0.118046   
    292. D(O  57,H  24,C  11,C  16)   -178.6700         0.118046   
    293. D(O  57,H  24,C  11,C   4)    -54.6350         0.118046   
    294. D(H  53,H  32,O   0,C   8)   -106.2411         0.345049   
    295. D(O  44,H  32,O   0,H  53)    -54.8223         0.345049   
    296. D(O  44,H  32,O   0,C   8)   -161.0634         0.345049   
    297. D(H  47,C  41,O  40,C  43)   -132.4851         0.017758   
    298. D(C  42,C  41,O  40,C  43)    -13.3221         0.017758   
    299. D(H  39,C  41,O  40,C  43)    105.6306         0.017758   
    300. D(O  45,C  42,C  41,H  47)    133.4819         0.011533   
    301. D(O  45,C  42,C  41,O  40)     16.1838         0.011533   
    302. D(O  45,C  42,C  41,H  39)   -101.0177         0.011533   
    303. D(H  38,C  42,C  41,H  47)   -106.5803         0.011533   
    304. D(H  38,C  42,C  41,O  40)    136.1215         0.011533   
    305. D(H  38,C  42,C  41,H  39)     18.9200         0.011533   
    306. D(O  45,C  43,O  40,C  41)      5.2456         0.032538   
    307. D(O  44,C  43,O  40,C  41)   -174.2363         0.032538   
    308. D(H  32,O  44,C  43,O  45)   -100.7641         0.119455   
    309. D(H  32,O  44,C  43,O  40)     78.6483         0.119455   
    310. D(C  43,O  44,H  32,H  53)    137.4228         0.001536   
    311. D(C  43,O  44,H  32,O   0)   -174.9976         0.001536   
    312. D(C  42,O  45,C  43,O  44)   -174.2898         0.026892   
    313. D(C  42,O  45,C  43,O  40)      6.2189         0.026892   
    314. D(C  43,O  45,C  42,F  46)    104.1882         0.022862   
    315. D(C  43,O  45,C  42,C  41)    -14.0328         0.022862   
    316. D(C  43,O  45,C  42,H  38)   -138.2455         0.022862   
    317. D(H  53,C  52,C  50,O  54)    135.6376         0.011398   
    318. D(H  53,C  52,C  50,H  49)     18.1942         0.011398   
    319. D(H  53,C  52,C  50,H  48)   -106.9018         0.011398   
    320. D(F  51,C  52,C  50,O  54)   -100.3998         0.011398   
    321. D(F  51,C  52,C  50,H  49)    142.1569         0.011398   
    322. D(F  51,C  52,C  50,H  48)     17.0609         0.011398   
    323. D(C  52,H  53,O   0,C   8)     43.9764         0.001504   
    324. D(C   8,H  53,C  52,C  50)    -69.6724         0.165941   
    325. D(H  32,H  53,C  52,O  55)     -4.0903         0.165941   
    326. D(H  32,H  53,C  52,F  51)    114.4571         0.165941   
    327. D(H  32,H  53,C  52,C  50)   -120.6717         0.165941   
    328. D(O   0,H  53,C  52,O  55)     25.0654         0.165941   
    329. D(O   0,H  53,C  52,F  51)    143.6128         0.165941   
    330. D(O   0,H  53,C  52,C  50)    -91.5160         0.165941   
    331. D(C   8,H  53,H  32,O   0)     38.6963         0.001501   
    332. D(O   0,H  53,H  32,O  44)    150.1207         0.001501   
    333. D(C  52,H  53,H  32,O  44)    -77.4825         0.001501   
    334. D(C  52,H  53,H  32,O   0)    132.3969         0.001501   
    335. D(H  32,H  53,C   8,C  15)   -148.2307         0.001500   
    336. D(H  32,H  53,C   8,C   2)     82.0601         0.001500   
    337. D(H  32,H  53,C   8,O   0)    -31.1125         0.001500   
    338. D(C   8,H  53,H  32,O  44)   -171.1830         0.001501   
    339. D(O   0,H  53,C   8,C  15)   -117.1183         0.001500   
    340. D(O   0,H  53,C   8,C   2)    113.1725         0.001500   
    341. D(C  52,H  53,C   8,C  15)     90.6664         0.001500   
    342. D(C  52,H  53,C   8,C   2)    -39.0429         0.001500   
    343. D(C  52,H  53,C   8,O   0)   -152.2154         0.001500   
    344. D(C   8,H  53,O   0,H  32)   -114.6872         0.001504   
    345. D(H  32,H  53,O   0,C   8)    114.6872         0.001504   
    346. D(C   8,H  53,C  52,F  51)    165.4564         0.165941   
    347. D(C  52,H  53,O   0,H  32)    -70.7108         0.001504   
    348. D(C  56,O  54,C  50,C  52)    -12.7846         0.017699   
    349. D(C  56,O  54,C  50,H  49)    106.9381         0.017699   
    350. D(C  56,O  54,C  50,H  48)   -131.9139         0.017699   
    351. D(H  20,O  55,C  52,H  53)    -36.8619         0.026274   
    352. D(H  20,O  55,C  52,F  51)   -155.2361         0.026274   
    353. D(H  20,O  55,C  52,C  50)     87.4035         0.026274   
    354. D(C  56,O  55,C  52,H  53)   -138.3982         0.026274   
    355. D(C  56,O  55,C  52,F  51)    103.2276         0.026274   
    356. D(C  56,O  55,C  52,C  50)    -14.1328         0.026274   
    357. D(C  56,O  55,H  20,O  57)    -19.6290         0.001500   
    358. D(C  56,O  55,H  20,C   5)   -175.6380         0.001500   
    359. D(C  52,O  55,H  20,C  56)   -111.6039         0.001500   
    360. D(C  52,O  55,H  20,O  57)   -131.2329         0.001500   
    361. D(C  52,O  55,H  20,C   5)     72.7581         0.001500   
    362. D(H  20,C  56,O  55,C  52)    142.2914         0.034763   
    363. D(O  57,C  56,O  55,H  20)     43.4940         0.034763   
    364. D(O  57,C  56,O  55,C  52)   -174.2146         0.034763   
    365. D(O  54,C  56,O  55,H  20)   -135.5720         0.034763   
    366. D(O  54,C  56,O  55,C  52)      6.7194         0.034763   
    367. D(H  20,C  56,O  54,C  50)    -82.8841         0.034791   
    368. D(O  57,C  56,O  54,C  50)   -174.4738         0.034791   
    369. D(O  55,C  56,O  54,C  50)      4.5756         0.034791   
    370. D(O  57,C  56,H  20,C   5)   -135.4849         0.001500   
    371. D(O  55,C  56,H  20,O  57)    141.2459         0.001500   
    372. D(O  55,C  56,H  20,C   5)      5.7610         0.001500   
    373. D(O  54,C  56,H  20,O  55)    102.0342         0.001500   
    374. D(O  54,C  56,H  20,O  57)   -116.7199         0.001500   
    375. D(O  54,C  56,H  20,C   5)    107.7952         0.001500   
    376. D(H  24,O  57,C  56,O  55)    -14.0561         0.144418   
    377. D(H  24,O  57,C  56,O  54)    164.8640         0.144418   
    378. D(H  20,O  57,C  56,O  55)    -46.5812         0.144418   
    379. D(H  20,O  57,C  56,O  54)    132.3389         0.144418   
    380. D(H  20,O  57,H  24,C  11)     64.8155         0.001500   
    381. D(C  56,O  57,H  24,C  11)     14.1394         0.001500   
    382. D(H  24,O  57,H  20,C  56)   -140.1551         0.001500   
    383. D(H  24,O  57,H  20,O  55)   -117.6901         0.001500   
    384. D(H  24,O  57,H  20,C   5)    -72.7122         0.001500   
    385. D(C  56,O  57,H  20,O  55)     22.4650         0.001500   
    386. D(H  24,O  57,C  56,H  20)     32.5251         0.144418   
    387. D(C  56,O  57,H  20,C   5)     67.4429         0.001500   
    -----------------------------------------------------------------

Number of atoms                         .... 58
Number of degrees of freedom            .... 387


         *************************************************************
         *                GEOMETRY OPTIMIZATION CYCLE   1            *
         *************************************************************
---------------------------------
CARTESIAN COORDINATES (ANGSTROEM)
---------------------------------
  O      1.633071    1.901333    2.134231
  O     -3.619042   -1.557935    2.055862
  C      1.495232    0.206184    0.382517
  C      0.151826   -0.274589    0.812000
  C     -2.246969   -0.462788    0.373358
  C     -0.968058   -0.048387    0.008797
  C      3.371698    0.059077   -1.184402
  C      2.117881   -0.352831   -0.734907
  C      2.158555    1.239560    1.065196
  C     -0.028228   -0.968134    2.010424
  C     -2.391381   -1.155377    1.583744
  C     -3.442248   -0.119460   -0.492913
  C      4.019736   -0.593870   -2.391246
  C      4.009840    1.076346   -0.476961
  C     -1.286947   -1.415210    2.387712
  C      3.413449    1.661901    0.630684
  C     -4.226036   -1.322270   -0.948833
  C      3.189902   -0.505113   -3.642054
  C     -5.530422   -1.506018   -0.760563
  C      2.780945   -1.542257   -4.362852
  H     -0.855016    0.510289   -0.911943
  H      1.599897   -1.142895   -1.266846
  H      0.824187   -1.173615    2.646572
  H     -4.108508    0.567753    0.039679
  H     -3.078010    0.423266   -1.369191
  H      4.236355   -1.645790   -2.178818
  H      4.985124   -0.107831   -2.567744
  H      4.989852    1.417008   -0.792212
  H     -1.426844   -1.971078    3.306052
  H      3.911870    2.451044    1.179944
  H     -3.653633   -2.087856   -1.466834
  H      2.912334    0.499419   -3.952284
  H      0.758501    1.566813    2.391778
  H     -4.234188   -1.664900    1.313490
  H     -6.036896   -2.392021   -1.122202
  H     -6.143779   -0.762073   -0.261656
  H      2.185907   -1.412168   -5.258208
  H      3.029894   -2.561066   -4.084906
  H     -4.999900    1.003413    3.349331
  H     -3.682234   -0.546748    4.666416
  O     -2.198849    0.872565    4.908534
  C     -3.579808    0.490315    4.983854
  C     -4.260573    1.447617    4.011262
  C     -2.006021    1.673677    3.846678
  O     -0.955629    2.074971    3.463610
  O     -3.202554    1.960960    3.248674
  F     -4.869221    2.482539    4.686704
  H     -3.934064    0.627979    6.002731
  H      1.118426    5.962900   -0.904842
  H      2.028900    4.419324   -0.890768
  C      1.040460    4.878507   -0.869623
  F     -0.535300    5.455836    0.825820
  C      0.210302    4.411414    0.323533
  H      0.763580    3.956536    1.141620
  O      0.288315    4.420755   -2.003142
  O     -0.659301    3.460429   -0.232593
  C     -0.656447    3.548754   -1.597631
  O     -1.376372    2.926867   -2.308980

----------------------------
CARTESIAN COORDINATES (A.U.)
----------------------------
  NO LB      ZA    FRAG     MASS         X           Y           Z
   0 O     8.0000    0    15.999    3.086057    3.592998    4.033113
   1 O     8.0000    0    15.999   -6.838998   -2.944071    3.885015
   2 C     6.0000    0    12.011    2.825579    0.389631    0.722852
   3 C     6.0000    0    12.011    0.286910   -0.518898    1.534458
   4 C     6.0000    0    12.011   -4.246156   -0.874542    0.705544
   5 C     6.0000    0    12.011   -1.829364   -0.091439    0.016624
   6 C     6.0000    0    12.011    6.371586    0.111640   -2.238196
   7 C     6.0000    0    12.011    4.002214   -0.666754   -1.388773
   8 C     6.0000    0    12.011    4.079077    2.342429    2.012929
   9 C     6.0000    0    12.011   -0.053343   -1.829509    3.799151
  10 C     6.0000    0    12.011   -4.519054   -2.183347    2.992843
  11 C     6.0000    0    12.011   -6.504906   -0.225747   -0.931470
  12 C     6.0000    0    12.011    7.596200   -1.122251   -4.518801
  13 C     6.0000    0    12.011    7.577500    2.034000   -0.901326
  14 C     6.0000    0    12.011   -2.431978   -2.674360    4.512122
  15 C     6.0000    0    12.011    6.450484    3.140538    1.191819
  16 C     6.0000    0    12.011   -7.986051   -2.498728   -1.793034
  17 C     6.0000    0    12.011    6.028041   -0.954524   -6.882485
  18 C     6.0000    0    12.011  -10.450983   -2.845961   -1.437256
  19 C     6.0000    0    12.011    5.255225   -2.914444   -8.244595
  20 H     1.0000    0     1.008   -1.615747    0.964307   -1.723322
  21 H     1.0000    0     1.008    3.023367   -2.159758   -2.393992
  22 H     1.0000    0     1.008    1.557487   -2.217810    5.001296
  23 H     1.0000    0     1.008   -7.763955    1.072898    0.074982
  24 H     1.0000    0     1.008   -5.816597    0.799857   -2.587397
  25 H     1.0000    0     1.008    8.005550   -3.110093   -4.117369
  26 H     1.0000    0     1.008    9.420518   -0.203772   -4.852333
  27 H     1.0000    0     1.008    9.429454    2.677758   -1.497064
  28 H     1.0000    0     1.008   -2.696344   -3.724798    6.247533
  29 H     1.0000    0     1.008    7.392362    4.631802    2.229771
  30 H     1.0000    0     1.008   -6.904365   -3.945477   -2.771914
  31 H     1.0000    0     1.008    5.503514    0.943766   -7.468734
  32 H     1.0000    0     1.008    1.433359    2.960848    4.519806
  33 H     1.0000    0     1.008   -8.001456   -3.146205    2.482136
  34 H     1.0000    0     1.008  -11.408079   -4.520265   -2.120654
  35 H     1.0000    0     1.008  -11.610059   -1.440110   -0.494459
  36 H     1.0000    0     1.008    4.130765   -2.668611   -9.936572
  37 H     1.0000    0     1.008    5.725671   -4.839713   -7.719354
  38 H     1.0000    0     1.008   -9.448442    1.896177    6.329319
  39 H     1.0000    0     1.008   -6.958413   -1.033204    8.818248
  40 O     8.0000    0    15.999   -4.155222    1.648908    9.275786
  41 C     6.0000    0    12.011   -6.764857    0.926560    9.418118
  42 C     6.0000    0    12.011   -8.051316    2.735600    7.580186
  43 C     6.0000    0    12.011   -3.790830    3.162792    7.269169
  44 O     8.0000    0    15.999   -1.805876    3.921127    6.545275
  45 O     8.0000    0    15.999   -6.051949    3.705677    6.139103
  46 F     9.0000    0    18.998   -9.201494    4.691319    8.856587
  47 H     1.0000    0     1.008   -7.434304    1.186709   11.343518
  48 H     1.0000    0     1.008    2.113519   11.268247   -1.709904
  49 H     1.0000    0     1.008    3.834065    8.351312   -1.683308
  50 C     6.0000    0    12.011    1.966184    9.219042   -1.643349
  51 F     9.0000    0    18.998   -1.011571   10.310035    1.560574
  52 C     6.0000    0    12.011    0.397413    8.336364    0.611388
  53 H     1.0000    0     1.008    1.442958    7.476769    2.157349
  54 O     8.0000    0    15.999    0.544836    8.354017   -3.785390
  55 O     8.0000    0    15.999   -1.245898    6.539264   -0.439537
  56 C     6.0000    0    12.011   -1.240505    6.706173   -3.019085
  57 O     8.0000    0    15.999   -2.600966    5.530977   -4.363340

--------------------------------
INTERNAL COORDINATES (ANGSTROEM)
--------------------------------
 O      0   0   0     0.000000000000     0.00000000     0.00000000
 O      1   0   0     6.289464785007     0.00000000     0.00000000
 C      1   2   0     2.441522664389    64.02643096     0.00000000
 C      3   1   2     1.490079627385    93.90599069   359.79097459
 C      2   1   3     2.431614757034    44.74162742   317.01959460
 C      5   2   1     1.392927329167   146.42471164    30.53555208
 C      3   1   2     2.449081838020   117.22477424   178.60852134
 C      7   3   1     1.394192559803    28.64872751   182.02229802
 C      1   2   3     1.362685747110    92.58718886   359.42764393
 C      4   3   1     1.396296191826   121.59435996   290.62489010
 C      2   1   3     1.375536274523    25.58053677   357.19416726
 C      5   2   1     1.515582637013    93.00954768   214.63071938
 C      7   3   1     1.517486562061   149.52735266   180.30421870
 C      7   3   1     1.393748081642    88.98110873     1.79190619
 C     10   4   3     1.388018989014   120.67868653   180.43431325
 C     14   7   3     1.387599894199   121.09033117   359.53292836
 C     12   5   2     1.506299848491   113.73350845   300.57082003
 C     13   7   3     1.503670051902   113.60813830    58.99862023
 C     17  12   5     1.330650468107   125.27570747   124.98561741
 C     18  13   7     1.327577909677   125.13660409   237.20125769
 H      6   5   2     1.082894097317   118.15516502   183.94193784
 H      8   7   3     1.084189186282   119.12853366   180.29408907
 H     10   4   3     1.083290234476   119.78620605   359.50073870
 H     12   5   2     1.095362227248   110.11560263    63.72218471
 H     12   5   2     1.093199604930   107.92991098   179.37819192
 H     13   7   3     1.094799984550   110.09707368   296.29548312
 H     13   7   3     1.095152256736   108.27960709   180.28468513
 H     14   7   3     1.084369386876   119.70459041   179.36003081
 H     15  10   4     1.082547551821   120.87507732   178.71841167
 H     16  14   7     1.082985145587   120.96643251   179.89318156
 H     17  12   5     1.087241380999   115.62897499   305.26187209
 H     18  13   7     1.087368613740   115.64091387    56.75134469
 H      1   2   3     0.971136685931    20.25156666   180.75065960
 H      2   1   3     0.970031742178   126.85144791   303.66602441
 H     19  17  12     1.082727747228   121.62004292   179.43870889
 H     19  17  12     1.085618892721   121.61607890     1.19626628
 H     20  18  13     1.082892300452   121.62334445   180.16630375
 H     20  18  13     1.084988882410   121.58818997   359.94950559
 H      2   1   3     3.184389826768    85.10402682   208.38510066
 H     39   2   1     2.423624705158    58.02966240   280.51010597
 O     40  39   2     2.067244737918    90.83866024   110.45289805
 C     40  39   2     1.089383224497    66.45835316   144.33165374
 C     39   2   1     1.087232010552   106.32284901   324.26486050
 C     41  40  39     1.344061812457   114.81186126   324.48039859
 O     44  41  40     1.187898193188   125.66034392   217.63472224
 O     44  41  40     1.368148856967   110.18192203    37.11660639
 F     43  39   2     1.377584439889   107.75843746   185.79247027
 H     42  40  39     1.087455842489   111.27842645   117.61905923
 H     30  16  14     4.948008517260    92.50233738   102.35938392
 H     49  30  16     1.792145948200    25.65279350   324.12468535
 C     49  30  16     1.087762091942    47.09930624    12.93621268
 F     51  49  30     2.385551437692    80.15958801   100.28715114
 C     52  51  49     1.378053853224    36.88354536   196.06471010
 H     53  52  51     1.087335393569   108.55015433   128.19417992
 O     51  49  30     1.435313689525   109.26408795   204.98107250
 O     53  52  51     1.403515369594   108.82774696   247.01731160
 C     55  51  49     1.348110289137   109.63197137   228.08612529
 O     57  55  51     1.187877746251   125.67826410   185.52619785

---------------------------
INTERNAL COORDINATES (A.U.)
---------------------------
 O      0   0   0     0.000000000000     0.00000000     0.00000000
 O      1   0   0    11.885365972606     0.00000000     0.00000000
 C      1   2   0     4.613809185457    64.02643096     0.00000000
 C      3   1   2     2.815842413493    93.90599069   359.79097459
 C      2   1   3     4.595085953995    44.74162742   317.01959460
 C      5   2   1     2.632251176581   146.42471164    30.53555208
 C      3   1   2     4.628093953419   117.22477424   178.60852134
 C      7   3   1     2.634642115978    28.64872751   182.02229802
 C      1   2   3     2.575102868636    92.58718886   359.42764393
 C      4   3   1     2.638617404387   121.59435996   290.62489010
 C      2   1   3     2.599386846122    25.58053677   357.19416726
 C      5   2   1     2.864036117281    93.00954768   214.63071938
 C      7   3   1     2.867634014201   149.52735266   180.30421870
 C      7   3   1     2.633802173981    88.98110873     1.79190619
 C     10   4   3     2.622975757919   120.67868653   180.43431325
 C     14   7   3     2.622183783495   121.09033117   359.53292836
 C     12   5   2     2.846494189215   113.73350845   300.57082003
 C     13   7   3     2.841524593874   113.60813830    58.99862023
 C     17  12   5     2.514564964696   125.27570747   124.98561741
 C     18  13   7     2.508758670734   125.13660409   237.20125769
 H      6   5   2     2.046373275970   118.15516502   183.94193784
 H      8   7   3     2.048820639432   119.12853366   180.29408907
 H     10   4   3     2.047121866712   119.78620605   359.50073870
 H     12   5   2     2.069934626940   110.11560263    63.72218471
 H     12   5   2     2.065847863028   107.92991098   179.37819192
 H     13   7   3     2.068872142220   110.09707368   296.29548312
 H     13   7   3     2.069537840177   108.27960709   180.28468513
 H     14   7   3     2.049161169203   119.70459041   179.36003081
 H     15  10   4     2.045718399888   120.87507732   178.71841167
 H     16  14   7     2.046545332265   120.96643251   179.89318156
 H     17  12   5     2.054588451555   115.62897499   305.26187209
 H     18  13   7     2.054828886590   115.64091387    56.75134469
 H      1   2   3     1.835182375014    20.25156666   180.75065960
 H      2   1   3     1.833094333926   126.85144791   303.66602441
 H     19  17  12     2.046058919858   121.62004292   179.43870889
 H     19  17  12     2.051522393053   121.61607890     1.19626628
 H     20  18  13     2.046369880387   121.62334445   180.16630375
 H     20  18  13     2.050331846105   121.58818997   359.94950559
 H      2   1   3     6.017624676237    85.10402682   208.38510066
 H     39   2   1     4.579986944154    58.02966240   280.51010597
 O     40  39   2     3.906526406455    90.83866024   110.45289805
 C     40  39   2     2.058635949187    66.45835316   144.33165374
 C     39   2   1     2.054570743977   106.32284901   324.26486050
 C     41  40  39     2.539908732605   114.81186126   324.48039859
 O     44  41  40     2.244802260105   125.66034392   217.63472224
 O     44  41  40     2.585426650104   110.18192203    37.11660639
 F     43  39   2     2.603257317742   107.75843746   185.79247027
 H     42  40  39     2.054993725036   111.27842645   117.61905923
 H     30  16  14     9.350381005932    92.50233738   102.35938392
 H     49  30  16     3.386665034115    25.65279350   324.12468535
 C     49  30  16     2.055572452631    47.09930624    12.93621268
 F     51  49  30     4.508038895620    80.15958801   100.28715114
 C     52  51  49     2.604144380388    36.88354536   196.06471010
 H     53  52  51     2.054766109565   108.55015433   128.19417992
 O     51  49  30     2.712349789471   109.26408795   204.98107250
 O     53  52  51     2.652259673282   108.82774696   247.01731160
 C     55  51  49     2.547559244790   109.63197137   228.08612529
 O     57  55  51     2.244763620994   125.67826410   185.52619785

---------------------
BASIS SET INFORMATION
---------------------
There are 4 groups of distinct atoms

 Group   1 Type O   : 11s6p2d1f contracted to 5s3p2d1f pattern {62111/411/11/1}
 Group   2 Type C   : 11s6p2d1f contracted to 5s3p2d1f pattern {62111/411/11/1}
 Group   3 Type H   : 5s1p contracted to 3s1p pattern {311/1}
 Group   4 Type F   : 11s6p2d1f contracted to 5s3p2d1f pattern {62111/411/11/1}

Atom   0O    basis set group =>   1
Atom   1O    basis set group =>   1
Atom   2C    basis set group =>   2
Atom   3C    basis set group =>   2
Atom   4C    basis set group =>   2
Atom   5C    basis set group =>   2
Atom   6C    basis set group =>   2
Atom   7C    basis set group =>   2
Atom   8C    basis set group =>   2
Atom   9C    basis set group =>   2
Atom  10C    basis set group =>   2
Atom  11C    basis set group =>   2
Atom  12C    basis set group =>   2
Atom  13C    basis set group =>   2
Atom  14C    basis set group =>   2
Atom  15C    basis set group =>   2
Atom  16C    basis set group =>   2
Atom  17C    basis set group =>   2
Atom  18C    basis set group =>   2
Atom  19C    basis set group =>   2
Atom  20H    basis set group =>   3
Atom  21H    basis set group =>   3
Atom  22H    basis set group =>   3
Atom  23H    basis set group =>   3
Atom  24H    basis set group =>   3
Atom  25H    basis set group =>   3
Atom  26H    basis set group =>   3
Atom  27H    basis set group =>   3
Atom  28H    basis set group =>   3
Atom  29H    basis set group =>   3
Atom  30H    basis set group =>   3
Atom  31H    basis set group =>   3
Atom  32H    basis set group =>   3
Atom  33H    basis set group =>   3
Atom  34H    basis set group =>   3
Atom  35H    basis set group =>   3
Atom  36H    basis set group =>   3
Atom  37H    basis set group =>   3
Atom  38H    basis set group =>   3
Atom  39H    basis set group =>   3
Atom  40O    basis set group =>   1
Atom  41C    basis set group =>   2
Atom  42C    basis set group =>   2
Atom  43C    basis set group =>   2
Atom  44O    basis set group =>   1
Atom  45O    basis set group =>   1
Atom  46F    basis set group =>   4
Atom  47H    basis set group =>   3
Atom  48H    basis set group =>   3
Atom  49H    basis set group =>   3
Atom  50C    basis set group =>   2
Atom  51F    basis set group =>   4
Atom  52C    basis set group =>   2
Atom  53H    basis set group =>   3
Atom  54O    basis set group =>   1
Atom  55O    basis set group =>   1
Atom  56C    basis set group =>   2
Atom  57O    basis set group =>   1
---------------------------------
AUXILIARY/J BASIS SET INFORMATION
---------------------------------
There are 4 groups of distinct atoms

 Group   1 Type O   : 12s5p4d2f1g contracted to 6s4p3d1f1g pattern {711111/2111/211/2/1}
 Group   2 Type C   : 12s5p4d2f1g contracted to 6s4p3d1f1g pattern {711111/2111/211/2/1}
 Group   3 Type H   : 5s2p1d contracted to 3s1p1d pattern {311/2/1}
 Group   4 Type F   : 12s5p4d2f1g contracted to 6s4p3d1f1g pattern {711111/2111/211/2/1}

Atom   0O    basis set group =>   1
Atom   1O    basis set group =>   1
Atom   2C    basis set group =>   2
Atom   3C    basis set group =>   2
Atom   4C    basis set group =>   2
Atom   5C    basis set group =>   2
Atom   6C    basis set group =>   2
Atom   7C    basis set group =>   2
Atom   8C    basis set group =>   2
Atom   9C    basis set group =>   2
Atom  10C    basis set group =>   2
Atom  11C    basis set group =>   2
Atom  12C    basis set group =>   2
Atom  13C    basis set group =>   2
Atom  14C    basis set group =>   2
Atom  15C    basis set group =>   2
Atom  16C    basis set group =>   2
Atom  17C    basis set group =>   2
Atom  18C    basis set group =>   2
Atom  19C    basis set group =>   2
Atom  20H    basis set group =>   3
Atom  21H    basis set group =>   3
Atom  22H    basis set group =>   3
Atom  23H    basis set group =>   3
Atom  24H    basis set group =>   3
Atom  25H    basis set group =>   3
Atom  26H    basis set group =>   3
Atom  27H    basis set group =>   3
Atom  28H    basis set group =>   3
Atom  29H    basis set group =>   3
Atom  30H    basis set group =>   3
Atom  31H    basis set group =>   3
Atom  32H    basis set group =>   3
Atom  33H    basis set group =>   3
Atom  34H    basis set group =>   3
Atom  35H    basis set group =>   3
Atom  36H    basis set group =>   3
Atom  37H    basis set group =>   3
Atom  38H    basis set group =>   3
Atom  39H    basis set group =>   3
Atom  40O    basis set group =>   1
Atom  41C    basis set group =>   2
Atom  42C    basis set group =>   2
Atom  43C    basis set group =>   2
Atom  44O    basis set group =>   1
Atom  45O    basis set group =>   1
Atom  46F    basis set group =>   4
Atom  47H    basis set group =>   3
Atom  48H    basis set group =>   3
Atom  49H    basis set group =>   3
Atom  50C    basis set group =>   2
Atom  51F    basis set group =>   4
Atom  52C    basis set group =>   2
Atom  53H    basis set group =>   3
Atom  54O    basis set group =>   1
Atom  55O    basis set group =>   1
Atom  56C    basis set group =>   2
Atom  57O    basis set group =>   1
--------------------------------------------------------------------------
WARNING: There was an error initializing an OpenFabrics device.

  Local host:   ga01
  Local device: mlx5_0
--------------------------------------------------------------------------


           ************************************************************
           *        Program running with 4 parallel MPI-processes     *
           *              working on a common directory               *
           ************************************************************
------------------------------------------------------------------------------
                             ORCA STARTUP CALCULATIONS
                           -- RI-GTO INTEGRALS CHOSEN --
------------------------------------------------------------------------------
------------------------------------------------------------------------------
                   ___                                                        
                  /   \      - P O W E R E D   B Y -                         
                 /     \                                                     
                 |  |  |   _    _      __       _____    __    __             
                 |  |  |  | |  | |    /  \     |  _  \  |  |  /  |          
                  \  \/   | |  | |   /    \    | | | |  |  | /  /          
                 / \  \   | |__| |  /  /\  \   | |_| |  |  |/  /          
                |  |  |   |  __  | /  /__\  \  |    /   |      \           
                |  |  |   | |  | | |   __   |  |    \   |  |\   \          
                \     /   | |  | | |  |  |  |  | |\  \  |  | \   \       
                 \___/    |_|  |_| |__|  |__|  |_| \__\ |__|  \__/        
                                                                              
                      - O R C A' S   B I G   F R I E N D -                    
                                      &                                       
                       - I N T E G R A L  F E E D E R -                       
                                                                              
 v1 FN, 2020, v2 2021, v3 2022-2024                                           
------------------------------------------------------------------------------


----------------------
SHARK INTEGRAL PACKAGE
----------------------

Number of atoms                             ...     58
Number of basis functions                   ...   1198
Number of shells                            ...    470
Maximum angular momentum                    ...      3
Integral batch strategy                     ... SHARK/LIBINT Hybrid
RI-J (if used) integral strategy            ... SPLIT-RIJ (Revised 2003 algorithm where possible)
Printlevel                                  ...      1
Contraction scheme used                     ... SEGMENTED contraction
Prescreening option                         ... SCHWARTZ
   Thresh                                   ... 2.500e-11
   Tcut                                     ... 2.500e-12
   Tpresel                                  ... 2.500e-12 
Coulomb Range Separation                    ... NOT USED
Exchange Range Separation                   ... NOT USED
Multipole approximations                    ... NOT USED
Finite Nucleus Model                        ... NOT USED
CABS basis                                  ... NOT available
Auxiliary Coulomb fitting basis             ... AVAILABLE
   # of basis functions in Aux-J            ...   1930
   # of shells in Aux-J                     ...    630
   Maximum angular momentum in Aux-J        ...      4
Auxiliary J/K fitting basis                 ... NOT available
Auxiliary Correlation fitting basis         ... NOT available
Auxiliary 'external' fitting basis          ... NOT available

Checking pre-screening integrals            ... done (  0.0 sec) Dimension = 470
Check shell pair data                       ... done (  0.0 sec)
Shell pair information
Shell pair cut-off parameter TPreSel        ...   2.5e-12
Total number of shell pairs                 ...    110685
Shell pairs after pre-screening             ...     64676
Total number of primitive shell pairs       ...    340720
Primitive shell pairs kept                  ...    124816
          la=0 lb=0:  16751 shell pairs
          la=1 lb=0:  19130 shell pairs
          la=1 lb=1:   5480 shell pairs
          la=2 lb=0:   8925 shell pairs
          la=2 lb=1:   5241 shell pairs
          la=2 lb=2:   1238 shell pairs
          la=3 lb=0:   4093 shell pairs
          la=3 lb=1:   2483 shell pairs
          la=3 lb=2:   1081 shell pairs
          la=3 lb=3:    254 shell pairs

Calculating one electron integrals          ... done (  0.2 sec)
Calculating RI/J V-Matrix + Cholesky decomp.... done (  0.2 sec)
Calculating Nuclear repulsion               ... done (  0.0 sec) ENN=   3712.210110882712 Eh

Diagonalization of the overlap matrix:
Smallest eigenvalue                        ... 5.027e-06
Time for diagonalization                   ...    0.197 sec
Threshold for overlap eigenvalues          ... 1.000e-07
Number of eigenvalues below threshold      ... 0
Time for construction of square roots      ...    0.135 sec
Total time needed                          ...    0.349 sec

-------------------
DFT GRID GENERATION
-------------------

General Integration Accuracy     IntAcc      ... 4.388
Radial Grid Type                 RadialGrid  ... OptM3 with GC (2021)
Angular Grid (max. ang.)         AngularGrid ... 4 (Lebedev-302)
Angular grid pruning method      GridPruning ... 4 (adaptive)
Weight generation scheme         WeightScheme... mBecke (2022)
Basis function cutoff            BFCut       ... 1.0000e-11
Integration weight cutoff        WCut        ... 1.0000e-14
Partially contracted basis set               ... off
Rotationally invariant grid construction     ... off
Angular grids for H and He will be reduced by one unit

Total number of grid points                  ...   279639
Total number of batches                      ...     4400
Average number of points per batch           ...       63
Average number of grid points per atom       ...     4821

--------------------
COSX GRID GENERATION
--------------------

GRIDX 1
-------
General Integration Accuracy     IntAcc      ... 3.816
Radial Grid Type                 RadialGrid  ... OptM3 with GC (2021)
Angular Grid (max. ang.)         AngularGrid ... 1 (Lebedev-50)
Angular grid pruning method      GridPruning ... 4 (adaptive)
Weight generation scheme         WeightScheme... mBecke (2022)
Basis function cutoff            BFCut       ... 1.0000e-11
Integration weight cutoff        WCut        ... 1.0000e-14
Partially contracted basis set               ... on
Rotationally invariant grid construction     ... off
Angular grids for H and He will be reduced by one unit

Total number of grid points                  ...    35366
Total number of batches                      ...      312
Average number of points per batch           ...      113
Average number of grid points per atom       ...      610
UseSFitting                                  ... on

GRIDX 2
-------
General Integration Accuracy     IntAcc      ... 4.020
Radial Grid Type                 RadialGrid  ... OptM3 with GC (2021)
Angular Grid (max. ang.)         AngularGrid ... 2 (Lebedev-110)
Angular grid pruning method      GridPruning ... 4 (adaptive)
Weight generation scheme         WeightScheme... mBecke (2022)
Basis function cutoff            BFCut       ... 1.0000e-11
Integration weight cutoff        WCut        ... 1.0000e-14
Partially contracted basis set               ... on
Rotationally invariant grid construction     ... off
Angular grids for H and He will be reduced by one unit

[ga01:974426] 3 more processes have sent help message help-mpi-btl-openib.txt / error in device init
[ga01:974426] Set MCA parameter "orte_base_help_aggregate" to 0 to see all help / error messages
Total number of grid points                  ...    76906
Total number of batches                      ...      633
Average number of points per batch           ...      121
Average number of grid points per atom       ...     1326
UseSFitting                                  ... on

GRIDX 3
-------
General Integration Accuracy     IntAcc      ... 4.338
Radial Grid Type                 RadialGrid  ... OptM3 with GC (2021)
Angular Grid (max. ang.)         AngularGrid ... 3 (Lebedev-194)
Angular grid pruning method      GridPruning ... 4 (adaptive)
Weight generation scheme         WeightScheme... mBecke (2022)
Basis function cutoff            BFCut       ... 1.0000e-11
Integration weight cutoff        WCut        ... 1.0000e-14
Partially contracted basis set               ... on
Rotationally invariant grid construction     ... off
Angular grids for H and He will be reduced by one unit

Total number of grid points                  ...   167930
Total number of batches                      ...     1342
Average number of points per batch           ...      125
Average number of grid points per atom       ...     2895
UseSFitting                                  ... on
Initializing property integral containers    ... done (  0.0 sec)

SHARK setup successfully completed in   7.9 seconds

Maximum memory used throughout the entire STARTUP-calculation: 158.5 MB
--------------------------------------------------------------------------
WARNING: There was an error initializing an OpenFabrics device.

  Local host:   ga01
  Local device: mlx5_0
--------------------------------------------------------------------------


           ************************************************************
           *        Program running with 4 parallel MPI-processes     *
           *              working on a common directory               *
           ************************************************************
-------------------------------------------------------------------------------
                                 ORCA GUESS
                   Start orbitals & Density for SCF / CASSCF
-------------------------------------------------------------------------------

------------
SCF SETTINGS
------------
Hamiltonian:
 Density Functional     Method          .... DFT(GTOs)
 Exchange Functional    Exchange        .... B88
   X-Alpha parameter    XAlpha          ....  0.666667
   Becke's b parameter  XBeta           ....  0.004200
 Correlation Functional Correlation     .... LYP
 LDA part of GGA corr.  LDAOpt          .... VWN-5
 Gradients option       PostSCFGGA      .... off
 Hybrid DFT is turned on
   Fraction HF Exchange ScalHFX         ....  0.200000
   Scaling of DF-GGA-X  ScalDFX         ....  0.720000
   Scaling of DF-GGA-C  ScalDFC         ....  0.810000
   Scaling of DF-LDA-C  ScalLDAC        ....  1.000000
   Perturbative correction              ....  0.000000
   NL short-range parameter             ....  4.800000
 RI-approximation to the Coulomb term is turned on
   Number of AuxJ basis functions       .... 1930
   RIJ-COSX (HFX calculated with COS-X)).... on


General Settings:
 Integral files         IntName         .... honokiol2-opt_FEC2
 Hartree-Fock type      HFTyp           .... RHF
 Total Charge           Charge          ....    0
 Multiplicity           Mult            ....    1
 Number of Electrons    NEL             ....  250
 Basis Dimension        Dim             .... 1198
 Nuclear Repulsion      ENuc            ....   3712.2101108827 Eh

Convergence Acceleration:
 AO-DIIS                CNVDIIS         .... on
   Start iteration      DIISMaxIt       ....    12
   Startup error        DIISStart       ....  0.200000
   # of expansion vecs  DIISMaxEq       ....     5
   Bias factor          DIISBfac        ....   1.050
   Max. coefficient     DIISMaxC        ....  10.000
 MO-DIIS                CNVKDIIS        .... off
 Trust-Rad. Augm. Hess. CNVTRAH         .... auto
   Auto Start mean grad. ratio tolernc. ....  1.125000
   Auto Start start iteration           ....    50
   Auto Start num. interpolation iter.  ....    10
   Max. Number of Micro iterations      ....    24
   Max. Number of Macro iterations      .... Maxiter - #DIIS iter
   Number of Davidson start vectors     ....     2
   Converg. threshold    (grad. norm)   ....   1.000e-05
   Grad. Scal. Fac. for Micro threshold ....   0.100
   Minimum threshold for Micro iter.    ....   1.000e-02
   NR start threshold (gradient norm)   ....   1.000e-04
   Initial trust radius                 ....   0.400
   Minimum AH scaling param. (alpha)    ....   1.000
   Maximum AH scaling param. (alpha)    .... 1000.000
   Quad. conv. algorithm                .... NR
   White noise on init. David. guess    .... on
   Maximum white noise                  ....   0.010
   Pseudo random numbers                .... off
   Inactive MOs                         .... canonical
   Orbital update algorithm             .... Taylor
   Preconditioner                       .... Diag
   Full preconditioner red. dimension   ....   250
 SOSCF                  CNVSOSCF        .... on
   Start iteration      SOSCFMaxIt      ....   150
   Startup grad/error   SOSCFStart      ....  0.003300
   Hessian update       SOSCFHessUp     .... L-BFGS
 Level Shifting         CNVShift        .... on
   Level shift para.    LevelShift      ....    0.2500
   Turn off err/grad.   ShiftErr        ....    0.0010
 Zerner damping         CNVZerner       .... off
 Static damping         CNVDamp         .... on
   Fraction old density DampFac         ....    0.7000
   Max. Damping (<1)    DampMax         ....    0.9800
   Min. Damping (>=0)   DampMin         ....    0.0000
[...]
 O     57  55  51     1.187866138573   125.69645622   185.62676560

---------------------------
INTERNAL COORDINATES (A.U.)
---------------------------
 O      0   0   0     0.000000000000     0.00000000     0.00000000
 O      1   0   0    11.860310184428     0.00000000     0.00000000
 C      1   2   0     4.612371739443    64.28697321     0.00000000
 C      3   1   2     2.813163551332    93.79164225   359.97366083
 C      2   1   3     4.595412299870    45.59160029   318.78718257
 C      5   2   1     2.631201211248   146.45868124    29.59016492
 C      3   1   2     4.628701790145   117.19975201   179.36216194
 C      7   3   1     2.634367202214    28.63599158   182.24322737
 C      1   2   3     2.572851431092    92.90632334   359.11642309
 C      4   3   1     2.639859539841   121.25916810   293.45137105
 C      2   1   3     2.596935693605    25.78356821   357.37225428
 C      5   2   1     2.864520404122    92.84613968   213.69839220
 C      7   3   1     2.867578664916   149.50920536   180.53580875
 C      7   3   1     2.633553528066    89.01495702     2.05553020
 C     10   4   3     2.621795092241   120.71589620   180.36411360
 C     14   7   3     2.622532407516   121.06131447   359.30690899
 C     12   5   2     2.846353610019   113.87757515   300.26970240
 C     13   7   3     2.841677045903   113.62041389    58.71325268
 C     17  12   5     2.514605208102   125.21920685   125.10905389
 C     18  13   7     2.508808330823   125.11598286   236.62635735
 H      6   5   2     2.046491468737   118.52570535   183.69476085
 H      8   7   3     2.048940791373   119.21814326   180.55156480
 H     10   4   3     2.046887858693   119.80832358   359.48284987
 H     12   5   2     2.070130049744   109.90297264    63.31213988
 H     12   5   2     2.065903607085   108.10874750   178.90757214
 H     13   7   3     2.068911649181   110.13806944   296.00605805
 H     13   7   3     2.069614294438   108.26484740   179.96640089
 H     14   7   3     2.049063015815   119.71879926   179.32671281
 H     15  10   4     2.045842695892   120.82367886   178.56431216
 H     16  14   7     2.046607318425   121.01969369   180.26792871
 H     17  12   5     2.054569877123   115.64770190   305.33755510
 H     18  13   7     2.054770468063   115.66311391    56.19539923
 H      1   2   3     1.835479833187    20.80266245   161.81057258
 H      2   1   3     1.832862017838   127.85676615   306.03946363
 H     19  17  12     2.046063442774   121.63093218   179.37155632
 H     19  17  12     2.051522120809   121.59180592     1.09873030
 H     20  18  13     2.046369073756   121.61412201   180.22340528
 H     20  18  13     2.050345480953   121.58489854     0.02838340
 H      2   1   3     6.057541816625    85.52591097   207.52119630
 H     39   2   1     4.579474007488    57.41427868   283.65303661
 O     40  39   2     3.906714826859    90.86112359   111.27217890
 C     40  39   2     2.058600679225    66.41717894   145.19297247
 C     39   2   1     2.054711410053   106.37869239   326.71175752
 C     41  40  39     2.540112260430   114.67054738   324.43291809
 O     44  41  40     2.246276595579   125.62285373   217.89697313
 O     44  41  40     2.581211774678   110.27900925    37.43114383
 F     43  39   2     2.603310399283   107.69812274   186.74407758
 H     42  40  39     2.054916608618   111.19962660   117.70517864
 H     30  16  14     9.416629510685    91.18605265   102.77249592
 H     49  30  16     3.389728165850    21.04284119   330.00226206
 C     49  30  16     2.055197444256    46.04802987    17.28703350
 F     51  49  30     4.515134303152    80.67957528   107.66515147
 C     52  51  49     2.604492236159    36.71883004   196.76390998
 H     53  52  51     2.054168346477   108.36680497   128.08086173
 O     51  49  30     2.711486206519   109.26639207   212.09678680
 O     53  52  51     2.651577305208   108.71502803   246.99093419
 C     55  51  49     2.547890242067   109.57650563   227.36752573
 O     57  55  51     2.244741685662   125.69645622   185.62676560

--------------------------------------------------------------------------
WARNING: There was an error initializing an OpenFabrics device.

  Local host:   ga01
  Local device: mlx5_0
--------------------------------------------------------------------------


           ************************************************************
           *        Program running with 4 parallel MPI-processes     *
           *              working on a common directory               *
           ************************************************************
------------------------------------------------------------------------------
                   ___                                                        
                  /   \      - P O W E R E D   B Y -                         
                 /     \                                                     
                 |  |  |   _    _      __       _____    __    __             
                 |  |  |  | |  | |    /  \     |  _  \  |  |  /  |          
                  \  \/   | |  | |   /    \    | | | |  |  | /  /          
                 / \  \   | |__| |  /  /\  \   | |_| |  |  |/  /          
                |  |  |   |  __  | /  /__\  \  |    /   |      \           
                |  |  |   | |  | | |   __   |  |    \   |  |\   \          
                \     /   | |  | | |  |  |  |  | |\  \  |  | \   \       
                 \___/    |_|  |_| |__|  |__|  |_| \__\ |__|  \__/        
                                                                              
                      - O R C A' S   B I G   F R I E N D -                    
                                      &                                       
                       - I N T E G R A L  F E E D E R -                       
                                                                              
 v1 FN, 2020, v2 2021, v3 2022-2024                                           
------------------------------------------------------------------------------


----------------------
SHARK INTEGRAL PACKAGE
----------------------

Number of atoms                             ...     58
Number of basis functions                   ...   1198
Number of shells                            ...    470
Maximum angular momentum                    ...      3
Integral batch strategy                     ... SHARK/LIBINT Hybrid
RI-J (if used) integral strategy            ... SPLIT-RIJ (Revised 2003 algorithm where possible)
Printlevel                                  ...      1
Contraction scheme used                     ... SEGMENTED contraction
Prescreening option                         ... SCHWARTZ
   Thresh                                   ... 2.500e-11
   Tcut                                     ... 2.500e-12
   Tpresel                                  ... 2.500e-12 
Coulomb Range Separation                    ... NOT USED
Exchange Range Separation                   ... NOT USED
Multipole approximations                    ... NOT USED
Finite Nucleus Model                        ... NOT USED
CABS basis                                  ... NOT available
Auxiliary Coulomb fitting basis             ... AVAILABLE
   # of basis functions in Aux-J            ...   1930
   # of shells in Aux-J                     ...    630
   Maximum angular momentum in Aux-J        ...      4
Auxiliary J/K fitting basis                 ... NOT available
Auxiliary Correlation fitting basis         ... NOT available
Auxiliary 'external' fitting basis          ... NOT available

Checking pre-screening integrals            ... done (  0.0 sec) Dimension = 470
Check shell pair data                       ... done (  0.0 sec)
Shell pair information
Shell pair cut-off parameter TPreSel        ...   2.5e-12
Total number of shell pairs                 ...    110685
Shell pairs after pre-screening             ...     64766
Total number of primitive shell pairs       ...    340720
Primitive shell pairs kept                  ...    125056
          la=0 lb=0:  16759 shell pairs
          la=1 lb=0:  19160 shell pairs
          la=1 lb=1:   5492 shell pairs
          la=2 lb=0:   8950 shell pairs
          la=2 lb=1:   5255 shell pairs
          la=2 lb=2:   1240 shell pairs
          la=3 lb=0:   4087 shell pairs
          la=3 lb=1:   2492 shell pairs
          la=3 lb=2:   1081 shell pairs
          la=3 lb=3:    250 shell pairs

Calculating one electron integrals          ... done (  0.2 sec)
Calculating RI/J V-Matrix + Cholesky decomp.... done (  0.2 sec)
Calculating Nuclear repulsion               ... done (  0.0 sec) ENN=   3717.705583208260 Eh

Diagonalization of the overlap matrix:
Smallest eigenvalue                        ... 5.039e-06
Time for diagonalization                   ...    0.184 sec
Threshold for overlap eigenvalues          ... 1.000e-07
Number of eigenvalues below threshold      ... 0
Time for construction of square roots      ...    0.117 sec
Total time needed                          ...    0.310 sec

-------------------
DFT GRID GENERATION
-------------------

General Integration Accuracy     IntAcc      ... 4.388
Radial Grid Type                 RadialGrid  ... OptM3 with GC (2021)
Angular Grid (max. ang.)         AngularGrid ... 4 (Lebedev-302)
Angular grid pruning method      GridPruning ... 4 (adaptive)
Weight generation scheme         WeightScheme... mBecke (2022)
Basis function cutoff            BFCut       ... 1.0000e-11
Integration weight cutoff        WCut        ... 1.0000e-14
Partially contracted basis set               ... off
Rotationally invariant grid construction     ... off
Angular grids for H and He will be reduced by one unit

Total number of grid points                  ...   279645
Total number of batches                      ...     4402
Average number of points per batch           ...       63
Average number of grid points per atom       ...     4821

--------------------
COSX GRID GENERATION
--------------------

GRIDX 1
-------
General Integration Accuracy     IntAcc      ... 3.816
Radial Grid Type                 RadialGrid  ... OptM3 with GC (2021)
Angular Grid (max. ang.)         AngularGrid ... 1 (Lebedev-50)
Angular grid pruning method      GridPruning ... 4 (adaptive)
Weight generation scheme         WeightScheme... mBecke (2022)
Basis function cutoff            BFCut       ... 1.0000e-11
Integration weight cutoff        WCut        ... 1.0000e-14
Partially contracted basis set               ... on
Rotationally invariant grid construction     ... off
Angular grids for H and He will be reduced by one unit

Total number of grid points                  ...    35366
Total number of batches                      ...      313
Average number of points per batch           ...      112
Average number of grid points per atom       ...      610
UseSFitting                                  ... on

GRIDX 2
-------
General Integration Accuracy     IntAcc      ... 4.020
Radial Grid Type                 RadialGrid  ... OptM3 with GC (2021)
Angular Grid (max. ang.)         AngularGrid ... 2 (Lebedev-110)
Angular grid pruning method      GridPruning ... 4 (adaptive)
Weight generation scheme         WeightScheme... mBecke (2022)
Basis function cutoff            BFCut       ... 1.0000e-11
Integration weight cutoff        WCut        ... 1.0000e-14
Partially contracted basis set               ... on
Rotationally invariant grid construction     ... off
Angular grids for H and He will be reduced by one unit

[ga01:1006924] 3 more processes have sent help message help-mpi-btl-openib.txt / error in device init
[ga01:1006924] Set MCA parameter "orte_base_help_aggregate" to 0 to see all help / error messages
Total number of grid points                  ...    76882
Total number of batches                      ...      633
Average number of points per batch           ...      121
Average number of grid points per atom       ...     1326
UseSFitting                                  ... on

GRIDX 3
-------
General Integration Accuracy     IntAcc      ... 4.338
Radial Grid Type                 RadialGrid  ... OptM3 with GC (2021)
Angular Grid (max. ang.)         AngularGrid ... 3 (Lebedev-194)
Angular grid pruning method      GridPruning ... 4 (adaptive)
Weight generation scheme         WeightScheme... mBecke (2022)
Basis function cutoff            BFCut       ... 1.0000e-11
Integration weight cutoff        WCut        ... 1.0000e-14
Partially contracted basis set               ... on
Rotationally invariant grid construction     ... off
Angular grids for H and He will be reduced by one unit

Total number of grid points                  ...   167964
Total number of batches                      ...     1340
Average number of points per batch           ...      125
Average number of grid points per atom       ...     2896
UseSFitting                                  ... on
Initializing property integral containers    ... done (  0.0 sec)

SHARK setup successfully completed in   7.5 seconds

Maximum memory used throughout the entire STARTUP-calculation: 169.7 MB
--------------------------------------------------------------------------
WARNING: There was an error initializing an OpenFabrics device.

  Local host:   ga01
  Local device: mlx5_0
--------------------------------------------------------------------------


           ************************************************************
           *        Program running with 4 parallel MPI-processes     *
           *              working on a common directory               *
           ************************************************************
Occupation numbers will be reassigned to an Aufbau configuration
             **** ENERGY FILE WAS UPDATED (honokiol2-opt_FEC2.en.tmp) ****
Finished Guess after   1.6 sec
Maximum memory used throughout the entire GUESS-calculation: 162.9 MB
[ga01:1006952] 3 more processes have sent help message help-mpi-btl-openib.txt / error in device init
[ga01:1006952] Set MCA parameter "orte_base_help_aggregate" to 0 to see all help / error messages
--------------------------------------------------------------------------
WARNING: There was an error initializing an OpenFabrics device.

  Local host:   ga01
  Local device: mlx5_0
--------------------------------------------------------------------------


           ************************************************************
           *        Program running with 4 parallel MPI-processes     *
           *              working on a common directory               *
           ************************************************************
----------------------------------------D-I-I-S--------------------------------------------
Iteration    Energy (Eh)           Delta-E    RMSDP     MaxDP     DIISErr   Damp  Time(sec)
-------------------------------------------------------------------------------------------
               ***  Starting incremental Fock matrix formation  ***
[ga01:1006979] 3 more processes have sent help message help-mpi-btl-openib.txt / error in device init
[ga01:1006979] Set MCA parameter "orte_base_help_aggregate" to 0 to see all help / error messages
    1    -1730.2449163643309475     0.00e+00  2.70e-05  2.95e-03  9.18e-03  0.700  40.5
    2    -1730.2451820838718959    -2.66e-04  2.32e-05  2.21e-03  7.19e-03  0.700  13.6
                               ***Turning on AO-DIIS***
    3    -1730.2453908995153142    -2.09e-04  1.81e-05  1.57e-03  5.36e-03  0.700  12.9
    4    -1730.2455446500994185    -1.54e-04  4.52e-05  3.67e-03  3.86e-03  0.000  12.6
                              *** Initializing SOSCF ***
---------------------------------------S-O-S-C-F--------------------------------------
Iteration    Energy (Eh)           Delta-E    RMSDP     MaxDP     MaxGrad    Time(sec)
--------------------------------------------------------------------------------------
    5    -1730.2459286221642287    -3.84e-04  4.45e-06  3.91e-04  2.06e-04    14.5
               *** Restarting incremental Fock matrix formation ***
    6    -1730.2459292606440613    -6.38e-07  8.68e-06  7.73e-04  6.57e-05    40.1
    7    -1730.2459294061504806    -1.46e-07  4.94e-06  5.75e-04  2.57e-05    18.6
    8    -1730.2459294101931846    -4.04e-09  3.87e-06  3.17e-04  2.51e-05    16.6
                 **** Energy Check signals convergence ****

               *****************************************************
               *                     SUCCESS                       *
               *           SCF CONVERGED AFTER   8 CYCLES          *
               *****************************************************

Recomputing exchange energy using gridx3       ... done (   69.318 sec)
Old exchange energy                            :    -43.814069048 Eh
New exchange energy                            :    -43.814067916 Eh
Exchange energy change after final integration :      0.000001132 Eh
Total energy after final integration           :  -1730.245928278 Eh
             **** ENERGY FILE WAS UPDATED (honokiol2-opt_FEC2.en.tmp) ****

----------------
TOTAL SCF ENERGY
----------------

Total Energy       :      -1730.24592827802121 Eh          -47082.38533 eV

Components:
Nuclear Repulsion  :       3717.70558320826012 Eh          101163.91199 eV
Electronic Energy  :      -5447.95151261845331 Eh         -148246.29735 eV
One Electron Energy:      -9765.51653376459035 Eh         -265733.21450 eV
Two Electron Energy:       4317.56502114613704 Eh          117486.91714 eV

Virial components:
Potential Energy   :      -3453.35400204194684 Eh          -93970.53977 eV
Kinetic Energy     :       1723.10807376392563 Eh           46888.15443 eV
Virial Ratio       :          2.00414242996291

DFT components:
N(Alpha)           :      125.000055257629 electrons
N(Beta)            :      125.000055257629 electrons
N(Total)           :      250.000110515258 electrons
E(X)               :     -174.282981945324 Eh       
E(C)               :      -10.210651414439 Eh       
E(XC)              :     -184.493633359763 Eh       

---------------
SCF CONVERGENCE
---------------

  Last Energy change         ...    4.0427e-09  Tolerance :   1.0000e-08
  Last MAX-Density change    ...    3.1692e-04  Tolerance :   1.0000e-07
  Last RMS-Density change    ...    3.8665e-06  Tolerance :   5.0000e-09
  Last DIIS Error            ...    2.0631e-04  Tolerance :   5.0000e-07
  Last Orbital Gradient      ...    2.5051e-05  Tolerance :   1.0000e-05
  Last Orbital Rotation      ...    6.4111e-05  Tolerance :   1.0000e-05


Total SCF time: 0 days 0 hours 4 min 0 sec 
Finished LeanSCF after 240.2 sec

Maximum memory used throughout the entire LEANSCF-calculation: 238.5 MB

-------------------------   --------------------
FINAL SINGLE POINT ENERGY     -1730.245928278021
-------------------------   --------------------

--------------------------------------------------------------------------
WARNING: There was an error initializing an OpenFabrics device.

  Local host:   ga01
  Local device: mlx5_0
--------------------------------------------------------------------------


           ************************************************************
           *        Program running with 4 parallel MPI-processes     *
           *              working on a common directory               *
           ************************************************************
------------------------------------------------------------------------------
                         ORCA SCF GRADIENT CALCULATION
------------------------------------------------------------------------------

Nuc. rep. gradient        (SHARK) ... done (  0.0 sec)
HCore & Overlap gradient  (SHARK) ... done (  2.7 sec)
Split-RIJ-J gradient      (SHARK) ... [ga01:1007581] 3 more processes have sent help message help-mpi-btl-openib.txt / error in device init
[ga01:1007581] Set MCA parameter "orte_base_help_aggregate" to 0 to see all help / error messages
done ( 12.1 sec)
COSX-gradient                     ... 