
                                 *****************
                                 * O   R   C   A *
                                 *****************

                                            #,                                       
                                            ###                                      
                                            ####                                     
                                            #####                                    
                                            ######                                   
                                           ########,                                 
                                     ,,################,,,,,                         
                               ,,#################################,,                 
                          ,,##########################################,,             
                       ,#########################################, ''#####,          
                    ,#############################################,,   '####,        
                  ,##################################################,,,,####,       
                ,###########''''           ''''###############################       
              ,#####''   ,,,,##########,,,,          '''####'''          '####       
            ,##' ,,,,###########################,,,                        '##       
           ' ,,###''''                  '''############,,,                           
         ,,##''                                '''############,,,,        ,,,,,,###''
      ,#''                                            '''#######################'''  
     '                                                          ''''####''''         
             ,#######,   #######,   ,#######,      ##                                
            ,#'     '#,  ##    ##  ,#'     '#,    #''#        ,####,   ,####,        
            ##       ##  ##   ,#'  ##            #'  '#       #'       #'  '#        
            ##       ##  #######   ##           ,######,      #####,   #    #        
            '#,     ,#'  ##    ##  '#,     ,#' ,#      #,     #,   #   #,  ,#        
             '#######'   ##     ##  '#######'  #'      '#     '####' # '####'        



                #########################################################
                #                        -***-                          #
                #          Department of theory and spectroscopy        #
                #                                                       #
                #                      Frank Neese                      #
                #                                                       #
                #     Directorship, Architecture, Infrastructure        #
                #                    SHARK, DRIVERS                     #
                #        Core code/Algorithms in most modules           #
                #                                                       #
                #        Max Planck Institute fuer Kohlenforschung      #
                #                Kaiser Wilhelm Platz 1                 #
                #                 D-45470 Muelheim/Ruhr                 #
                #                      Germany                          #
                #                                                       #
                #                  All rights reserved                  #
                #                        -***-                          #
                #########################################################


                         Program Version 6.0.1  -  RELEASE   -


 With contributions from (in alphabetic order):
[Max-Planck-Institut fuer Kohlenforschung]                               
  Daniel Aravena         : Magnetic Suceptibility                        
  Michael Atanasov       : Ab Initio Ligand Field Theory (pilot matlab implementation)
  Alexander A. Auer      : GIAO ZORA, VPT2 properties, NMR spectrum      
  Ute Becker             : All parallelization in ORCA, NUMFREQ, NUMCALC 
  Giovanni Bistoni       : ED, misc. LED, open-shell LED, HFLD           
  Martin Brehm           : Molecular dynamics                            
  Dmytro Bykov           : pre 5.0 version of the SCF Hessian            
  Marcos Casanova-Páez   : Triplet and SCS-CIS(D). UHF-(DLPNO)-IP/EA/STEOM-CCSD. UHF-CVS-IP/STEOM-CCSD   
  Vijay G. Chilkuri      : MRCI spin determinant printing, contributions to CSF-ICE 
  Pauline Colinet        : FMM embedding                                 
  Dipayan Datta          : RHF DLPNO-CCSD density                        
  Achintya Kumar Dutta   : EOM-CC, STEOM-CC                              
  Nicolas Foglia         : Exact transition moments, OPA infrastructure, MCD improvements    
  Dmitry Ganyushin       : Spin-Orbit,Spin-Spin,Magnetic field MRCI      
  Miquel Garcia-Rates    : C-PCM and meta-GGA Hessian, CCSD/C-PCM, Gaussian charge scheme 
  Tiago L. C. Gouveia    : GS-ROHF, GS-ROCIS                             
  Yang Guo               : DLPNO-NEVPT2, F12-NEVPT2, CIM, IAO-localization        
  Andreas Hansen         : Spin unrestricted coupled pair/coupled cluster methods 
  Ingolf Harden          : AUTO-CI MPn and infrastructure                
  Benjamin Helmich-Paris : MC-RPA, TRAH-(SCF,CASSCF), AVAS, COSX integrals, SCF dyn. polar. 
  Lee Huntington         : MR-EOM, pCC                                   
  Robert Izsak           : Overlap fitted RIJCOSX, COSX-SCS-MP3, EOM     
  Riya Kayal             : Wick's Theorem for AUTO-CI, AUTO-CI UHF-CCSDT 
  Emily Kempfer          : AUTO-CI, RHF CISDT and CCSDT                  
  Christian Kollmar      : KDIIS, OOCD, Brueckner-CCSD(T), CCSD density, CASPT2, CASPT2-K, improved NEVPT2 
  Axel Koslowski         : Symmetry handling                             
  Simone Kossmann        : meta-GGA functionals, TD-DFT gradient, OOMP2, (MP2 Hessian; deprecated post 5.0) 
  Lucas Lang             : DCDCAS                                        
  Marvin Lechner         : AUTO-CI (C++ implementation), FIC-MRCC        
  Spencer Leger          : CASSCF response                               
  Dagmar Lenk            : GEPOL surface, SMD, ORCA-2-JSON               
  Dimitrios Liakos       : Extrapolation schemes; Compound Job, initial MDCI parallelization 
  Dimitrios Manganas     : Further ROCIS development; embedding schemes. LFT, Crystal Embedding 
  Dimitrios Pantazis     : SARC Basis sets                               
  Anastasios Papadopoulos: AUTO-CI, single reference methods and gradients 
  Taras Petrenko         : pre 6.0 DFT Hessian and TD-DFT gradient, (ASA, deprecated), ECA, 1-Electron XAS/XES, NRVS 
  Peter Pinski           : DLPNO-MP2, DLPNO-MP2 Gradient                 
  Christoph Reimann      : Effective Core Potentials                     
  Marius Retegan         : Local ZFS, SOC                                
  Christoph Riplinger    : Optimizer, TS searches, QM/MM, DLPNO-CCSD(T), (RO)-DLPNO pert. Triples 
  Michael Roemelt        : Original ROCIS implementation                 
  Masaaki Saitow         : Open-shell DLPNO-CCSD energy and density      
  Barbara Sandhoefer     : DKH picture change effects                    
  Kantharuban Sivalingam : CASSCF convergence/infrastructure, NEVPT2 and variants, FIC-MRCI 
  Bernardo de Souza      : ESD, SOC TD-DFT                               
  Georgi L. Stoychev     : AutoAux, RI-MP2 NMR, DLPNO-MP2 response, X2C  
  Van Anh Tran           : RI-MP2 g-tensors                              
  Willem Van den Heuvel  : Paramagnetic NMR                              
  Zikuan Wang            : NOTCH, Electric field optimization            
  Frank Wennmohs         : Technical directorship and infrastructure     
  Hang Xu                : AUTO-CI-Response properties                   
                                                                         
[FACCTs GmbH]                                                            
  Markus Bursch, Miquel Garcia-Rates, Christoph Riplinger, Bernardo de Souza, Georgi L. Stoychev 
                                                                 
  APM, Basis sets (HGBS, AHGBS, def-TZVP (Ac-Lr), def2-XVPD (La-Lu)), CI-OPT, improved COSX, DLPNO-Multilevel,           
  DOCKER, DRACO, updates on ESD, GOAT, IRC, LR-CPCM, MBIS, meta-GGA TD-DFT gradient, ML-optimized integration grids, 
  MM, NACMEs, nearIR, NEB, NEB-TS, NL-DFT gradient (VV10), 2- and 3-layer-ONIOM, interface openCOSMO-RS, QMMM,   
  Crystal-QMMM, SF, symmetry and pop. for TD-DFT, r2SCAN hybrids, SOLVATOR                                   
                                                                         
[Other institutions]                                                     
  V. Asgeirsson          : NEB                                           
  Christoph Bannwarth    : sTDA-DFT, sTD-DFT, PBEh-3c, B97-3c, D3        
  Sebastian Ehlert       : rSCAN, r2SCAN, r2SCAN-3c, D4, dhf basis sets  
  Marvin Friede          : D4 for Fr, Ra, Ac-Lr                          
  Lars Goerigk           : TD-DFT with DH, B97 family of functionals     
  Stefan Grimme          : VdW corrections, initial TS optimization, DFT functionals, gCP, sTDA/sTD-DF 
  Waldemar Hujo          : DFT-NL                                        
  H. Jonsson             : NEB                                           
  Holger Kruse           : gCP                                           
  Marcel Mueller         : wB97X-3c, vDZP basis set                      
  Hagen Neugebauer       : wr2SCAN                                       
  Tobias Risthaus        : range-separated hybrid DFT                    
  Lukas Wittmann         : regularized MP2, r2SCAN double-hybrids, wr2SCAN        
                                                                         
We gratefully acknowledge several colleagues who have allowed us to      
interface, adapt or use parts of their codes:                            
  Ed Valeev, F. Pavosevic, A. Kumar             : LibInt (2-el integral package), F12 methods 
  Garnet Chan, S. Sharma, J. Yang, R. Olivares  : DMRG                   
  Ulf Ekstrom                                   : XCFun DFT Library      
  Mihaly Kallay                                 : mrcc  (arbitrary order and MRCC methods)
  Frank Weinhold                                : gennbo (NPA and NBO analysis)           
  Simon Mueller                                 : openCOSMO-RS                            
  Christopher J. Cramer and Donald G. Truhlar   : smd solvation model                     
  S Lehtola, MJT Oliveira, MAL Marques          : LibXC Library                           
  Liviu Ungur et al                             : ANISO software                          


 Your calculation uses the libint2 library for the computation of 2-el integrals
 For citations please refer to: http://libint.valeyev.net

 Your ORCA version has been built with support for libXC version: 6.2.2
 For citations please refer to: https://libxc.gitlab.io

 This ORCA versions uses:
   CBLAS   interface :  Fast vector & matrix operations
   LAPACKE interface :  Fast linear algebra routines
   SCALAPACK package :  Parallel linear algebra routines
   Shared memory     :  Shared parallel matrices
   BLAS/LAPACK       :  OpenBLAS 0.3.27  USE64BITINT DYNAMIC_ARCH NO_AFFINITY SkylakeX SINGLE_THREADED
        Core in use  :  SkylakeX
   Copyright (c) 2011-2014, The OpenBLAS Project


NOTE: MaxCore=5000 MB was set to SCF,MP2,MDCI,CIPSI,MRCI and CIS
      => If you want to overwrite this, your respective input block should be placed after the MaxCore statement
Warning: RI is on but no J-basis has been assigned. Assigning Def2/J (nothing to worry about!)
================================================================================

----- Orbital basis set information -----
Your calculation utilizes the basis: def2-TZVP
   F. Weigend and R. Ahlrichs, Phys. Chem. Chem. Phys. 7, 3297 (2005).

----- AuxJ basis set information -----
Your calculation utilizes the auxiliary basis: def2/J
   F. Weigend, Phys. Chem. Chem. Phys. 8, 1057 (2006).

================================================================================
                                        WARNINGS
                       Please study these warnings very carefully!
================================================================================


WARNING: Geometry Optimization
  ===> : Switching off AutoStart
         For restart on a previous wavefunction, please use MOREAD

================================================================================
                                       INPUT FILE
================================================================================
NAME = honokiol2-opt_EC.inp
|  1> ! OPT B3LYP def2-TZVP TightSCF
|  2> 
|  3> %maxcore 5000
|  4> 
|  5> %pal
|  6> nprocs 25
|  7> end
|  8> 
|  9> * xyz 0 1
| 10> O        1.4378139690      1.3195661235      2.4846843332                 
| 11> O       -3.6234784392     -2.4172476261      2.1711296358                 
| 12> C        1.2316508747     -0.0452440627      0.4817526856                 
| 13> C       -0.0501295459     -0.6510174407      0.9272245169                 
| 14> C       -2.4024759936     -1.1701844750      0.4805485812                 
| 15> C       -1.1861958465     -0.5988938885      0.1143732559                 
| 16> C        2.9867134943      0.1617234126     -1.2121583974                 
| 17> C        1.7864084777     -0.3790163602     -0.7557909566                 
| 18> C        1.9136446812      0.8917012095      1.2783982648                 
| 19> C       -0.1652800460     -1.3115486672      2.1572460316                 
| 20> C       -2.4771908492     -1.8350995348      1.7152730738                 
| 21> C       -3.6188231316     -1.0376314015     -0.4145222949                 
| 22> C        3.5576306637     -0.2451035689     -2.5577859631                 
| 23> C        3.6421187806      1.0766477396     -0.3896775700                 
| 24> C       -1.3613188329     -1.8963360126      2.5450015093                 
| 25> C        3.1126486007      1.4427193920      0.8396092968                 
| 26> C       -4.2044651309     -2.3528284400     -0.8606614678                 
| 27> C        2.6825503367      0.1391758189     -3.7190133238                 
| 28> C       -5.4758298944     -2.7129338946     -0.7095144037                 
| 29> C        2.1941432179     -0.7034841813     -4.6214319285                 
| 30> H       -1.1246082271     -0.0761530641     -0.8334873778                 
| 31> H        1.2640322567     -1.1006001298     -1.3739214573                 
| 32> H        0.7008179833     -1.4037257393      2.8019448401                 
| 33> H       -4.3961225376     -0.4520252456      0.0890069602                 
| 34> H       -3.3251032997     -0.4664904020     -1.3000436612                 
| 35> H        3.7333084446     -1.3251045492     -2.5829711451                 
| 36> H        4.5359707185      0.2324602654     -2.6760593020                 
| 37> H        4.5807689334      1.5130785794     -0.7119648283                 
| 38> H       -1.4451310488     -2.4239858047      3.4863615777                 
| 39> H        3.6125071571      2.1655921009      1.4715091226                 
| 40> H       -3.5103740987     -3.0409853560     -1.3366432547                 
| 41> H        2.4439570110      1.1973323924     -3.7963031512                 
| 42> H        0.5660773120      0.9317181704      2.6407788884                 
| 43> H       -4.2348821290     -2.5726546693      1.4367226504                 
| 44> H       -5.8390748728     -3.6710786874     -1.0589561646                 
| 45> H       -6.2028307461     -2.0540384265     -0.2452358997                 
| 46> H        1.5717158363     -0.3620514741     -5.4393010668                 
| 47> H        2.4041958508     -1.7670453117     -4.5782351147                 
| 48> H       -5.3461979440      3.0610364290      3.9875079348                 
| 49> H       -5.1553402843      1.5606800562      5.8701345383                 
| 50> C       -4.6390312112      2.2428029131      3.8381401488                 
| 51> O       -3.1654190131      2.0302530943      5.6175686733                 
| 52> C       -2.5525652800      2.7343625659      4.6303047502                 
| 53> C       -4.3765149663      1.4471538191      5.1186629835                 
| 54> O       -3.3517876291      2.7960913477      3.5333350495                 
| 55> O       -1.4747879028      3.2246147583      4.7140768391                 
| 56> H       -4.9628150194      1.6275942117      3.0010221707                 
| 57> H       -4.2025698276      0.3862860181      4.9277661071
| 58> *
| 59> 
| 60>                          ****END OF INPUT****
================================================================================

                       *****************************
                       * Geometry Optimization Run *
                       *****************************

Geometry optimization settings:
Update method            Update   .... BFGS
Choice of coordinates    CoordSys .... (2022) Redundant Internals
Initial Hessian          InHess   .... Almloef's Model
Max. no of cycles        MaxIter  .... 144

Convergence Tolerances:
Energy Change            TolE     ....  5.0000e-06 Eh
Max. Gradient            TolMAXG  ....  3.0000e-04 Eh/bohr
RMS Gradient             TolRMSG  ....  1.0000e-04 Eh/bohr
Max. Displacement        TolMAXD  ....  4.0000e-03 bohr
RMS Displacement         TolRMSD  ....  2.0000e-03 bohr
Strict Convergence                .... False

------------------------------------------------------------------------------
                        ORCA OPTIMIZATION COORDINATE SETUP
------------------------------------------------------------------------------

The optimization will be done in redundant internal coordinates (2022)
Making redundant internal coordinates   ...  (2022 redundants) done
Evaluating the initial hessian          ...  (Almloef) done
Evaluating the coordinates              ...  done
Calculating the B-matrix                .... done
Calculating the G-matrix                .... done
Diagonalizing the G-matrix              .... done
Small eigenvalue found = 3.556e-03
Small eigenvalue found = 6.666e-03
Small eigenvalue found = 1.301e-02
Small eigenvalue found = 1.636e-02
Small eigenvalue found = 2.399e-02
Small eigenvalue found = 2.626e-02
The first mode is                       ....  120
The number of degrees of freedom        ....  138

    -----------------------------------------------------------------
                    Redundant Internal Coordinates


    -----------------------------------------------------------------
         Definition                    Initial Value    Approx d2E/dq
    -----------------------------------------------------------------
      1. B(C   3,C   2)                  1.4861         0.439020   
      2. B(C   5,C   3)                  1.3979         0.606951   
      3. B(C   5,C   4)                  1.3928         0.618482   
      4. B(C   7,C   2)                  1.3967         0.609683   
      5. B(C   7,C   6)                  1.3933         0.617172   
      6. B(C   8,C   2)                  1.4063         0.588523   
      7. B(C   8,O   0)                  1.3655         0.612283   
      8. B(C   9,C   3)                  1.4009         0.600278   
      9. B(C  10,C   4)                  1.4044         0.592681   
     10. B(C  10,O   1)                  1.3641         0.615533   
     11. B(C  11,C   4)                  1.5160         0.393307   
     12. B(C  12,C   6)                  1.5173         0.391432   
     13. B(C  13,C   6)                  1.3940         0.615779   
     14. B(C  14,C   9)                  1.3867         0.632499   
     15. B(C  14,C  10)                  1.3919         0.620464   
     16. B(C  15,C   8)                  1.3906         0.623422   
     17. B(C  15,C  13)                  1.3876         0.630280   
     18. B(C  16,C  11)                  1.5072         0.406159   
     19. B(C  17,C  12)                  1.5040         0.411082   
     20. B(C  18,C  16)                  1.3300         0.778881   
     21. B(C  19,C  17)                  1.3278         0.785273   
     22. B(H  20,C   5)                  1.0842         0.367854   
     23. B(H  21,C   7)                  1.0843         0.367758   
     24. B(H  22,C   9)                  1.0836         0.368623   
     25. B(H  23,C  11)                  1.0958         0.352572   
     26. B(H  24,C  11)                  1.0939         0.354975   
     27. B(H  25,C  12)                  1.0945         0.354215   
     28. B(H  26,C  12)                  1.0951         0.353439   
     29. B(H  27,C  13)                  1.0842         0.367908   
     30. B(H  28,C  14)                  1.0824         0.370291   
     31. B(H  29,C  15)                  1.0825         0.370226   
     32. B(H  30,C  16)                  1.0871         0.363899   
     33. B(H  31,C  17)                  1.0875         0.363460   
     34. B(H  32,O   0)                  0.9668         0.507115   
     35. B(H  33,O   1)                  0.9682         0.504615   
     36. B(H  34,C  18)                  1.0826         0.369976   
     37. B(H  35,C  18)                  1.0855         0.366153   
     38. B(H  36,C  19)                  1.0830         0.369472   
     39. B(H  37,C  19)                  1.0850         0.366822   
     40. B(C  40,H  38)                  1.0917         0.357802   
     41. B(C  40,H  23)                  4.6235         0.000001   
     42. B(C  42,H  32)                  4.1151         0.000005   
     43. B(C  42,O  41)                  1.3587         0.627801   
     44. B(C  43,O  41)                  1.4338         0.476498   
     45. B(C  43,C  40)                  1.5303         0.373211   
     46. B(C  43,H  39)                  1.0882         0.362497   
     47. B(O  44,H  32)                  4.4297         0.000002   
     48. B(O  44,C  42)                  1.3586         0.627920   
     49. B(O  44,C  40)                  1.4339         0.476275   
     50. B(O  45,O   0)                  4.1331         0.000021   
     51. B(O  45,H  32)                  3.7042         0.000022   
     52. B(O  45,C  42)                  1.1870         1.179639   
     53. B(H  46,H  33)                  4.5408         0.000000   
     54. B(H  46,C  11)                  4.5360         0.000001   
     55. B(H  46,C  10)                  4.4522         0.000002   
     56. B(H  46,O   1)                  4.3409         0.000002   
     57. B(H  46,C   4)                  4.5536         0.000001   
     58. B(H  46,H  23)                  3.6230         0.000006   
     59. B(H  46,C  40)                  1.0882         0.362547   
     60. B(H  46,O  44)                  2.0601         0.009136   
     61. B(H  47,C  14)                  4.3544         0.000002   
     62. B(H  47,C  10)                  4.2698         0.000003   
     63. B(H  47,H  28)                  4.1927         0.000001   
     64. B(H  47,O   1)                  3.9742         0.000008   
     65. B(H  47,C  43)                  1.0919         0.357659   
     66. B(H  47,O  41)                  2.0626         0.009055   
     67. B(H  47,H  33)                  4.5764         0.000000   
     68. A(H  32,O   0,O  45)           57.4806         0.115996   
     69. A(C   8,O   0,H  32)          109.3372         0.367738   
     70. A(C   8,O   0,O  45)          150.0532         0.121686   
     71. A(C  10,O   1,H  33)          110.2241         0.367760   
     72. A(C   7,C   2,C   8)          117.9398         0.428728   
     73. A(C   3,C   2,C   7)          120.7171         0.406924   
     74. A(C   3,C   2,C   8)          121.3373         0.404392   
     75. A(C   2,C   3,C   9)          121.7561         0.405807   
     76. A(C   5,C   3,C   9)          117.4734         0.429905   
     77. A(C   2,C   3,C   5)          120.7622         0.406601   
     78. A(C   5,C   4,C  10)          118.1526         0.430375   
     79. A(C   5,C   4,C  11)          120.6360         0.400117   
     80. A(C  10,C   4,C  11)          121.1856         0.397131   
     81. A(C   4,C   5,H  20)          118.5043         0.354038   
     82. A(C   3,C   5,C   4)          122.7889         0.432218   
     83. A(C   3,C   5,H  20)          118.6968         0.352911   
     84. A(C   7,C   6,C  13)          117.8075         0.433177   
     85. A(C  12,C   6,C  13)          121.4899         0.399472   
     86. A(C   7,C   6,C  12)          120.7015         0.399631   
     87. A(C   2,C   7,H  21)          118.2172         0.353164   
     88. A(C   2,C   7,C   6)          122.6595         0.432402   
     89. A(C   6,C   7,H  21)          119.1160         0.353895   
     90. A(O   0,C   8,C   2)          122.6978         0.426257   
     91. A(C   2,C   8,C  15)          120.2249         0.430446   
     92. A(O   0,C   8,C  15)          117.0676         0.430683   
     93. A(C   3,C   9,C  14)          121.0152         0.433101   
     94. A(C  14,C   9,H  22)          119.1529         0.355511   
     95. A(C   3,C   9,H  22)          119.7875         0.352376   
     96. A(O   1,C  10,C   4)          122.7239         0.427200   
     97. A(O   1,C  10,C  14)          117.1105         0.430725   
     98. A(C   4,C  10,C  14)          120.1513         0.430622   
     99. A(C   4,C  11,C  16)          114.2187         0.371870   
    100. A(H  23,C  11,H  24)          106.4650         0.289226   
    101. A(C  16,C  11,H  24)          108.6815         0.328039   
    102. A(C   4,C  11,H  24)          107.9488         0.326305   
    103. A(C  16,C  11,H  23)          109.0704         0.327671   
    104. A(C   4,C  11,H  23)          110.1561         0.325941   
    105. A(C   6,C  12,C  17)          113.4104         0.372336   
    106. A(H  25,C  12,H  26)          106.5255         0.289240   
    107. A(C  17,C  12,H  26)          108.9658         0.328456   
    108. A(C   6,C  12,H  26)          108.3618         0.325816   
    109. A(C  17,C  12,H  25)          109.1327         0.328575   
    110. A(C   6,C  12,H  25)          110.2052         0.325934   
    111. A(C   6,C  13,C  15)          121.0949         0.434818   
    112. A(C  15,C  13,H  27)          119.1768         0.355182   
    113. A(C   6,C  13,H  27)          119.7283         0.353784   
    114. A(C  10,C  14,H  28)          118.5423         0.354626   
    115. A(C   9,C  14,H  28)          121.0350         0.355784   
    116. A(C   9,C  14,C  10)          120.4135         0.435687   
    117. A(C  13,C  15,H  29)          121.1401         0.355561   
    118. A(C   8,C  15,H  29)          118.5924         0.354902   
    119. A(C   8,C  15,C  13)          120.2647         0.435784   
    120. A(C  11,C  16,C  18)          125.0328         0.419180   
    121. A(C  18,C  16,H  30)          119.2537         0.367555   
    122. A(C  11,C  16,H  30)          115.7132         0.329386   
    123. A(C  12,C  17,C  19)          125.2143         0.420694   
    124. A(C  19,C  17,H  31)          119.2437         0.367994   
    125. A(C  12,C  17,H  31)          115.5412         0.329976   
    126. A(H  34,C  18,H  35)          116.7794         0.292847   
    127. A(C  16,C  18,H  35)          121.6339         0.367945   
    128. A(C  16,C  18,H  34)          121.5788         0.368601   
    129. A(H  36,C  19,H  37)          116.7680         0.292868   
    130. A(C  17,C  19,H  37)          121.5907         0.368577   
    131. A(C  17,C  19,H  36)          121.6404         0.369032   
    132. A(H  38,C  40,C  43)          112.7255         0.323926   
    133. A(O  44,C  40,H  46)          108.7686         0.335949   
    134. A(C  43,C  40,H  46)          113.6304         0.324628   
    135. A(H  38,C  40,H  46)          109.6482         0.290856   
    136. A(C  43,C  40,O  44)          102.9737         0.376407   
    137. A(H  38,C  40,O  44)          108.7466         0.335214   
    138. A(C  42,O  41,C  43)          109.8114         0.409684   
    139. A(O  44,C  42,O  45)          124.9135         0.482733   
    140. A(O  41,C  42,O  45)          124.9115         0.482716   
    141. A(O  41,C  42,O  44)          110.1750         0.430352   
    142. A(O  41,C  43,H  47)          108.7488         0.335218   
    143. A(C  40,C  43,H  47)          112.7191         0.323905   
    144. A(H  39,C  43,H  47)          109.6408         0.290832   
    145. A(C  40,C  43,O  41)          102.9813         0.376437   
    146. A(H  39,C  43,O  41)          108.7736         0.335968   
    147. A(H  39,C  43,C  40)          113.6309         0.324620   
    148. A(C  40,O  44,C  42)          109.8116         0.409664   
    149. A(O   0,O  45,C  42)          114.2940         0.126916   
    150. D(C   5,C   3,C   2,C   7)    -52.9808         0.013153   
    151. D(C   5,C   3,C   2,C   8)    126.1242         0.013153   
    152. D(C   9,C   3,C   2,C   7)    125.9471         0.013153   
    153. D(C   9,C   3,C   2,C   8)    -54.9479         0.013153   
    154. D(H  20,C   5,C   3,C   2)     -2.1826         0.025428   
    155. D(C   3,C   5,C   4,C  10)     -0.5955         0.028754   
    156. D(C   4,C   5,C   3,C   2)    178.9795         0.025428   
    157. D(H  20,C   5,C   3,C   9)    178.8449         0.025428   
    158. D(C   3,C   5,C   4,C  11)    177.5799         0.028754   
    159. D(H  20,C   5,C   4,C  10)   -179.4355         0.028754   
    160. D(C   4,C   5,C   3,C   9)      0.0070         0.025428   
    161. D(H  20,C   5,C   4,C  11)     -1.2601         0.028754   
    162. D(C   6,C   7,C   2,C   8)      1.0178         0.025671   
    163. D(H  21,C   7,C   2,C   8)   -179.9695         0.025671   
    164. D(C   6,C   7,C   2,C   3)   -179.8475         0.025671   
    165. D(C   2,C   7,C   6,C  13)     -0.3620         0.026343   
    166. D(H  21,C   7,C   6,C  13)   -179.3662         0.026343   
    167. D(C   2,C   7,C   6,C  12)    179.2609         0.026343   
    168. D(H  21,C   7,C   6,C  12)      0.2566         0.026343   
    169. D(H  21,C   7,C   2,C   3)     -0.8348         0.025671   
    170. D(C  15,C   8,C   2,C   7)     -0.9595         0.023830   
    171. D(C  15,C   8,O   0,H  32)    174.7142         0.030298   
    172. D(C  15,C   8,C   2,C   3)    179.9114         0.023830   
    173. D(O   0,C   8,C   2,C   7)    177.8780         0.023830   
    174. D(O   0,C   8,C   2,C   3)     -1.2511         0.023830   
    175. D(C  15,C   8,O   0,O  45)    116.8659         0.030298   
    176. D(C   2,C   8,O   0,O  45)    -62.0060         0.030298   
    177. D(C   2,C   8,O   0,H  32)     -4.1578         0.030298   
    178. D(H  22,C   9,C   3,C   2)     -1.0404         0.024842   
    179. D(C  14,C   9,C   3,C   2)   -178.5975         0.024842   
    180. D(C  14,C   9,C   3,C   5)      0.3641         0.024842   
    181. D(H  22,C   9,C   3,C   5)    177.9212         0.024842   
    182. D(C  14,C  10,C   4,C  11)   -177.3400         0.030083   
    183. D(C  14,C  10,C   4,C   5)      0.8249         0.030083   
    184. D(O   1,C  10,C   4,C  11)      1.2456         0.030083   
    185. D(O   1,C  10,C   4,C   5)    179.4105         0.030083   
    186. D(C  14,C  10,O   1,H  33)   -161.8907         0.038223   
    187. D(C   4,C  10,O   1,H  33)     19.4833         0.038223   
    188. D(H  24,C  11,C   4,C  10)    178.6613         0.013039   
    189. D(H  24,C  11,C   4,C   5)      0.5418         0.013039   
    190. D(H  23,C  11,C   4,C  10)     62.7955         0.013039   
    191. D(H  23,C  11,C   4,C   5)   -115.3241         0.013039   
    192. D(C  16,C  11,C   4,C  10)    -60.3483         0.013039   
    193. D(C  16,C  11,C   4,C   5)    121.5322         0.013039   
    194. D(H  26,C  12,C   6,C   7)   -175.3752         0.011395   
    195. D(H  25,C  12,C   6,C  13)    120.4336         0.011395   
    196. D(H  25,C  12,C   6,C   7)    -59.1751         0.011395   
    197. D(C  17,C  12,C   6,C  13)   -116.8883         0.011395   
    198. D(C  17,C  12,C   6,C   7)     63.5030         0.011395   
    199. D(H  27,C  13,C   6,C  12)      0.0870         0.026217   
    200. D(H  27,C  13,C   6,C   7)    179.7067         0.026217   
    201. D(C  15,C  13,C   6,C  12)   -179.9880         0.026217   
    202. D(C  15,C  13,C   6,C   7)     -0.3683         0.026217   
    203. D(H  28,C  14,C  10,C   4)   -179.3924         0.033179   
    204. D(H  28,C  14,C  10,O   1)      1.9444         0.033179   
    205. D(C   9,C  14,C  10,C   4)     -0.4797         0.033179   
    206. D(C   9,C  14,C  10,O   1)   -179.1430         0.033179   
    207. D(H  28,C  14,C   9,H  22)      1.1818         0.030163   
    208. D(H  28,C  14,C   9,C   3)    178.7542         0.030163   
    209. D(C  10,C  14,C   9,H  22)   -177.7034         0.030163   
    210. D(C  10,C  14,C   9,C   3)     -0.1310         0.030163   
    211. D(C  13,C  15,C   8,C   2)      0.2750         0.026912   
    212. D(C  13,C  15,C   8,O   0)   -178.6264         0.026912   
    213. D(H  29,C  15,C  13,H  27)      0.9631         0.027545   
    214. D(H  29,C  15,C  13,C   6)   -178.9623         0.027545   
    215. D(C   8,C  15,C  13,H  27)   -179.6651         0.027545   
    216. D(C   8,C  15,C  13,C   6)      0.4095         0.027545   
    217. D(H  29,C  15,C   8,C   2)    179.6626         0.026912   
    218. D(H  29,C  15,C   8,O   0)      0.7612         0.026912   
    219. D(H  30,C  16,C  11,H  24)     66.9389         0.013075   
    220. D(H  30,C  16,C  11,H  23)   -177.3740         0.013075   
    221. D(H  30,C  16,C  11,C   4)    -53.6444         0.013075   
    222. D(C  18,C  16,C  11,H  24)   -113.2472         0.013075   
    223. D(C  18,C  16,C  11,H  23)      2.4399         0.013075   
    224. D(C  18,C  16,C  11,C   4)    126.1695         0.013075   
    225. D(H  31,C  17,C  12,H  25)   -179.7943         0.012513   
    226. D(H  31,C  17,C  12,C   6)     56.9368         0.012513   
    227. D(C  19,C  17,C  12,H  26)    116.4855         0.012513   
    228. D(C  19,C  17,C  12,H  25)      0.5361         0.012513   
    229. D(C  19,C  17,C  12,C   6)   -122.7329         0.012513   
    230. D(H  35,C  18,C  16,H  30)   -179.6270         0.043592   
    231. D(H  35,C  18,C  16,C  11)      0.5653         0.043592   
    232. D(H  34,C  18,C  16,H  30)     -0.6802         0.043592   
    233. D(H  34,C  18,C  16,C  11)    179.5120         0.043592   
    234. D(H  37,C  19,C  17,H  31)   -179.7245         0.044385   
    235. D(H  37,C  19,C  17,C  12)     -0.0661         0.044385   
    236. D(H  36,C  19,C  17,H  31)      0.6338         0.044385   
    237. D(H  36,C  19,C  17,C  12)   -179.7078         0.044385   
    238. D(O  45,C  42,O  41,C  43)   -172.8684         0.034778   
    239. D(O  44,C  42,O  41,C  43)      7.1299         0.034778   
    240. D(H  47,C  43,O  41,C  42)    102.6883         0.019413   
    241. D(C  40,C  43,O  41,C  42)    -17.1002         0.019413   
    242. D(H  39,C  43,O  41,C  42)   -137.9527         0.019413   
    243. D(H  47,C  43,C  40,H  38)    146.0935         0.011791   
    244. D(O  41,C  43,C  40,H  46)    137.5696         0.011791   
    245. D(O  41,C  43,C  40,O  44)     20.1056         0.011791   
    246. D(O  41,C  43,C  40,H  38)    -96.8985         0.011791   
    247. D(H  39,C  43,C  40,H  46)   -104.9554         0.011791   
    248. D(H  39,C  43,C  40,O  44)    137.5805         0.011791   
    249. D(H  39,C  43,C  40,H  38)     20.5765         0.011791   
    250. D(C  40,O  44,C  42,O  45)   -172.8668         0.037425   
    251. D(C  40,O  44,C  42,O  41)      7.1348         0.037425   
    252. D(C  42,O  44,C  40,H  46)   -137.9472         0.022150   
    253. D(C  42,O  44,C  40,C  43)    -17.1018         0.022150   
    254. D(C  42,O  44,C  40,H  38)    102.6890         0.022150   
    255. D(O   0,O  45,C  42,O  44)    -71.6337         0.145521   
    256. D(O   0,O  45,C  42,O  41)    108.3644         0.145521   
    257. D(C  42,O  45,O   0,H  32)    -11.9739         0.001500   
    258. D(C  42,O  45,O   0,C   8)     59.3648         0.001500   
    -----------------------------------------------------------------

Number of atoms                         .... 48
Number of degrees of freedom            .... 258


         *************************************************************
         *                GEOMETRY OPTIMIZATION CYCLE   1            *
         *************************************************************
---------------------------------
CARTESIAN COORDINATES (ANGSTROEM)
---------------------------------
  O      1.437814    1.319566    2.484684
  O     -3.623478   -2.417248    2.171130
  C      1.231651   -0.045244    0.481753
  C     -0.050130   -0.651017    0.927225
  C     -2.402476   -1.170184    0.480549
  C     -1.186196   -0.598894    0.114373
  C      2.986713    0.161723   -1.212158
  C      1.786408   -0.379016   -0.755791
  C      1.913645    0.891701    1.278398
  C     -0.165280   -1.311549    2.157246
  C     -2.477191   -1.835100    1.715273
  C     -3.618823   -1.037631   -0.414522
  C      3.557631   -0.245104   -2.557786
  C      3.642119    1.076648   -0.389678
  C     -1.361319   -1.896336    2.545002
  C      3.112649    1.442719    0.839609
  C     -4.204465   -2.352828   -0.860661
  C      2.682550    0.139176   -3.719013
  C     -5.475830   -2.712934   -0.709514
  C      2.194143   -0.703484   -4.621432
  H     -1.124608   -0.076153   -0.833487
  H      1.264032   -1.100600   -1.373921
  H      0.700818   -1.403726    2.801945
  H     -4.396123   -0.452025    0.089007
  H     -3.325103   -0.466490   -1.300044
  H      3.733308   -1.325105   -2.582971
  H      4.535971    0.232460   -2.676059
  H      4.580769    1.513079   -0.711965
  H     -1.445131   -2.423986    3.486362
  H      3.612507    2.165592    1.471509
  H     -3.510374   -3.040985   -1.336643
  H      2.443957    1.197332   -3.796303
  H      0.566077    0.931718    2.640779
  H     -4.234882   -2.572655    1.436723
  H     -5.839075   -3.671079   -1.058956
  H     -6.202831   -2.054038   -0.245236
  H      1.571716   -0.362051   -5.439301
  H      2.404196   -1.767045   -4.578235
  H     -5.346198    3.061036    3.987508
  H     -5.155340    1.560680    5.870135
  C     -4.639031    2.242803    3.838140
  O     -3.165419    2.030253    5.617569
  C     -2.552565    2.734363    4.630305
  C     -4.376515    1.447154    5.118663
  O     -3.351788    2.796091    3.533335
  O     -1.474788    3.224615    4.714077
  H     -4.962815    1.627594    3.001022
  H     -4.202570    0.386286    4.927766

----------------------------
CARTESIAN COORDINATES (A.U.)
----------------------------
  NO LB      ZA    FRAG     MASS         X           Y           Z
   0 O     8.0000    0    15.999    2.717075    2.493619    4.695373
   1 O     8.0000    0    15.999   -6.847382   -4.567936    4.102840
   2 C     6.0000    0    12.011    2.327483   -0.085499    0.910381
   3 C     6.0000    0    12.011   -0.094731   -1.230245    1.752200
   4 C     6.0000    0    12.011   -4.540022   -2.211328    0.908105
   5 C     6.0000    0    12.011   -2.241585   -1.131745    0.216134
   6 C     6.0000    0    12.011    5.644071    0.305613   -2.290647
   7 C     6.0000    0    12.011    3.375823   -0.716237   -1.428238
   8 C     6.0000    0    12.011    3.616264    1.685071    2.415823
   9 C     6.0000    0    12.011   -0.312334   -2.478468    4.076604
  10 C     6.0000    0    12.011   -4.681212   -3.467836    3.241396
  11 C     6.0000    0    12.011   -6.838585   -1.960839   -0.783334
  12 C     6.0000    0    12.011    6.722948   -0.463179   -4.833515
  13 C     6.0000    0    12.011    6.882607    2.034569   -0.736384
  14 C     6.0000    0    12.011   -2.572520   -3.583556    4.809356
  15 C     6.0000    0    12.011    5.882053    2.726345    1.586632
  16 C     6.0000    0    12.011   -7.945288   -4.446201   -1.626414
  17 C     6.0000    0    12.011    5.069285    0.263004   -7.027917
  18 C     6.0000    0    12.011  -10.347819   -5.126702   -1.340788
  19 C     6.0000    0    12.011    4.146330   -1.329392   -8.733241
  20 H     1.0000    0     1.008   -2.125202   -0.143908   -1.575063
  21 H     1.0000    0     1.008    2.388675   -2.079833   -2.596335
  22 H     1.0000    0     1.008    1.324354   -2.652657    5.294908
  23 H     1.0000    0     1.008   -8.307468   -0.854204    0.168199
  24 H     1.0000    0     1.008   -6.283535   -0.881539   -2.456726
  25 H     1.0000    0     1.008    7.054931   -2.504085   -4.881108
  26 H     1.0000    0     1.008    8.571742    0.439286   -5.057019
  27 H     1.0000    0     1.008    8.656399    2.859304   -1.345419
  28 H     1.0000    0     1.008   -2.730902   -4.580669    6.588269
  29 H     1.0000    0     1.008    6.826649    4.092376    2.780749
  30 H     1.0000    0     1.008   -6.633646   -5.746630   -2.525890
  31 H     1.0000    0     1.008    4.618409    2.262630   -7.173973
  32 H     1.0000    0     1.008    1.069731    1.760692    4.990349
  33 H     1.0000    0     1.008   -8.002767   -4.861613    2.715012
  34 H     1.0000    0     1.008  -11.034252   -6.937333   -2.001137
  35 H     1.0000    0     1.008  -11.721651   -3.881570   -0.463429
  36 H     1.0000    0     1.008    2.970112   -0.684178  -10.278789
  37 H     1.0000    0     1.008    4.543272   -3.339232   -8.651611
  38 H     1.0000    0     1.008  -10.102850    5.784521    7.535298
  39 H     1.0000    0     1.008   -9.742181    2.949258   11.092947
  40 C     6.0000    0    12.011   -8.766499    4.238283    7.253034
  41 O     8.0000    0    15.999   -5.981775    3.836622   10.615666
  42 C     6.0000    0    12.011   -4.823649    5.167196    8.750008
  43 C     6.0000    0    12.011   -8.270415    2.734724    9.672871
  44 O     8.0000    0    15.999   -6.333961    5.283847    6.677036
  45 O     8.0000    0    15.999   -2.786945    6.093639    8.908314
  46 H     1.0000    0     1.008   -9.378361    3.075707    5.671110
  47 H     1.0000    0     1.008   -7.941706    0.729975    9.312128

--------------------------------
INTERNAL COORDINATES (ANGSTROEM)
--------------------------------
 O      0   0   0     0.000000000000     0.00000000     0.00000000
 O      1   0   0     6.299109015469     0.00000000     0.00000000
 C      1   2   0     2.432477184017    63.77259403     0.00000000
 C      3   1   2     1.486057732596    93.15218861     0.58783938
 C      2   1   3     2.429830812457    47.65529728   324.53868438
 C      5   2   1     1.392765127116   146.33297007    25.01054443
 C      3   1   2     2.447940990232   117.48890922   179.81581447
 C      7   3   1     1.393342339766    28.70754247   181.76941718
 C      1   2   3     1.365506986478    92.87369626   359.19242297
 C      4   3   1     1.400897592788   121.75614782   304.46020474
 C      2   1   3     1.364066290292    24.25140510   355.73556696
 C      5   2   1     1.515988967855    93.00848149   207.01517430
 C      7   3   1     1.517289739227   149.40515424   180.52066115
 C      7   3   1     1.393957432954    89.10043641     1.44921383
 C     10   4   3     1.386664822369   121.01521184   181.40245049
 C     14   7   3     1.387621463866   121.09489359   359.45779932
 C     12   5   2     1.507235868409   114.21874749   300.24080384
 C     13   7   3     1.503956518596   113.41037361    64.20053130
 C     17  12   5     1.329996141080   125.03280575   126.16949595
 C     18  13   7     1.327771338650   125.21433088   237.26710827
 H      6   5   2     1.084200528166   118.50434585   181.06672281
 H      8   7   3     1.084271814958   119.11598599   180.99577981
 H     10   4   3     1.083632300487   119.78749096   358.95962538
 H     12   5   2     1.095751179391   110.15606776    63.38451788
 H     12   5   2     1.093901947679   107.94876114   179.25040547
 H     13   7   3     1.094485766716   110.20517349   301.52244796
 H     13   7   3     1.095082216709   108.36178346   185.32231912
 H     14   7   3     1.084160995490   119.72830541   179.53278114
 H     15  10   4     1.082403607263   121.03503233   178.75423043
 H     16  14   7     1.082451347417   121.14006662   181.03770271
 H     17  12   5     1.087143487990   115.71324800   306.35562402
 H     18  13   7     1.087472218739   115.54120908    56.93676244
 H      1   2   3     0.966807294162    17.36414623   161.06656350
 H      2   1   3     0.968152591889   129.82187571   314.76640006
 H     19  17  12     1.082634704119   121.57877540   179.51202468
 H     19  17  12     1.085462116120   121.63393016     0.56525635
 H     20  18  13     1.083006032437   121.64038358   180.29223249
 H     20  18  13     1.084965599182   121.59069546   359.93385622
 H     24  12   5     5.333156237759   144.52085108    20.10409430
 H     39  24  12     2.414907621395    98.42623205   285.06091320
 C     39  24  12     1.091742465060    44.83840851   327.58124894
 O     40  39  24     2.060115292853    80.74381511    84.83001668
 C     42  40  39     1.358694189296   130.00815822   352.42230551
 C     40  39  24     1.088194183104    65.35619930    44.62434410
 O     43  42  40     1.358642458507   110.17495284   341.19818950
 O     43  42  40     1.187000020992   124.91153268   161.19986722
 H     41  39  24     1.088156335270   109.64822186   345.64951057
 H     44  40  39     1.091851189446   109.64081812   223.58181039

---------------------------
INTERNAL COORDINATES (A.U.)
---------------------------
 O      0   0   0     0.000000000000     0.00000000     0.00000000
 O      1   0   0    11.903590926951     0.00000000     0.00000000
 C      1   2   0     4.596715704804    63.77259403     0.00000000
 C      3   1   2     2.808242133803    93.15218861     0.58783938
 C      2   1   3     4.591714787307    47.65529728   324.53868438
 C      5   2   1     2.631944659126   146.33297007    25.01054443
 C      3   1   2     4.625938063539   117.48890922   179.81581447
 C      7   3   1     2.633035432955    28.70754247   181.76941718
 C      1   2   3     2.580434238400    92.87369626   359.19242297
 C      4   3   1     2.647312792039   121.75614782   304.46020474
 C      2   1   3     2.577711717166    24.25140510   355.73556696
 C      5   2   1     2.864803971292    93.00848149   207.01517430
 C      7   3   1     2.867262072948   149.40515424   180.52066115
 C      7   3   1     2.634197790626    89.10043641     1.44921383
 C     10   4   3     2.620416753820   121.01521184   181.40245049
 C     14   7   3     2.622224544257   121.09489359   359.45779932
 C     12   5   2     2.848263010516   114.21874749   300.24080384
 C     13   7   3     2.842065937473   113.41037361    64.20053130
 C     17  12   5     2.513328465814   125.03280575   126.16949595
 C     18  13   7     2.509124198518   125.21433088   237.26710827
 H      6   5   2     2.048842072487   118.50434585   181.06672281
 H      8   7   3     2.048976785000   119.11598599   180.99577981
 H     10   4   3     2.047768277792   119.78749096   358.95962538
 H     12   5   2     2.070669639971   110.15606776    63.38451788
 H     12   5   2     2.067175098476   107.94876114   179.25040547
 H     13   7   3     2.068278356568   110.20517349   301.52244796
 H     13   7   3     2.069405483707   108.36178346   185.32231912
 H     14   7   3     2.048767366556   119.72830541   179.53278114
 H     15  10   4     2.045446384095   121.03503233   178.75423043
 H     16  14   7     2.045536599912   121.14006662   181.03770271
 H     17  12   5     2.054403460577   115.71324800   306.35562402
 H     18  13   7     2.055024671665   115.54120908    56.93676244
 H      1   2   3     1.827001010243    17.36414623   161.06656350
 H      2   1   3     1.829543254516   129.82187571   314.76640006
 H     19  17  12     2.045883093864   121.57877540   179.51202468
 H     19  17  12     2.051226128213   121.63393016     0.56525635
 H     20  18  13     2.046584802691   121.64038358   180.29223249
 H     20  18  13     2.050287847180   121.59069546   359.93385622
 H     24  12   5    10.078204718778   144.52085108    20.10409430
 H     39  24  12     4.563514043157    98.42623205   285.06091320
 C     39  24  12     2.063094267736    44.83840851   327.58124894
 O     40  39  24     3.893053707796    80.74381511    84.83001668
 C     42  40  39     2.567559917519   130.00815822   352.42230551
 C     40  39  24     2.056388986593    65.35619930    44.62434410
 O     43  42  40     2.567462160495   110.17495284   341.19818950
 O     43  42  40     2.243104960634   124.91153268   161.19986722
 H     41  39  24     2.056317464552   109.64822186   345.64951057
 H     44  40  39     2.063299727050   109.64081812   223.58181039

---------------------
BASIS SET INFORMATION
---------------------
There are 3 groups of distinct atoms

 Group   1 Type O   : 11s6p2d1f contracted to 5s3p2d1f pattern {62111/411/11/1}
 Group   2 Type C   : 11s6p2d1f contracted to 5s3p2d1f pattern {62111/411/11/1}
 Group   3 Type H   : 5s1p contracted to 3s1p pattern {311/1}

Atom   0O    basis set group =>   1
Atom   1O    basis set group =>   1
Atom   2C    basis set group =>   2
Atom   3C    basis set group =>   2
Atom   4C    basis set group =>   2
Atom   5C    basis set group =>   2
Atom   6C    basis set group =>   2
Atom   7C    basis set group =>   2
Atom   8C    basis set group =>   2
Atom   9C    basis set group =>   2
Atom  10C    basis set group =>   2
Atom  11C    basis set group =>   2
Atom  12C    basis set group =>   2
Atom  13C    basis set group =>   2
Atom  14C    basis set group =>   2
Atom  15C    basis set group =>   2
Atom  16C    basis set group =>   2
Atom  17C    basis set group =>   2
Atom  18C    basis set group =>   2
Atom  19C    basis set group =>   2
Atom  20H    basis set group =>   3
Atom  21H    basis set group =>   3
Atom  22H    basis set group =>   3
Atom  23H    basis set group =>   3
Atom  24H    basis set group =>   3
Atom  25H    basis set group =>   3
Atom  26H    basis set group =>   3
Atom  27H    basis set group =>   3
Atom  28H    basis set group =>   3
Atom  29H    basis set group =>   3
Atom  30H    basis set group =>   3
Atom  31H    basis set group =>   3
Atom  32H    basis set group =>   3
Atom  33H    basis set group =>   3
Atom  34H    basis set group =>   3
Atom  35H    basis set group =>   3
Atom  36H    basis set group =>   3
Atom  37H    basis set group =>   3
Atom  38H    basis set group =>   3
Atom  39H    basis set group =>   3
Atom  40C    basis set group =>   2
Atom  41O    basis set group =>   1
Atom  42C    basis set group =>   2
Atom  43C    basis set group =>   2
Atom  44O    basis set group =>   1
Atom  45O    basis set group =>   1
Atom  46H    basis set group =>   3
Atom  47H    basis set group =>   3
---------------------------------
AUXILIARY/J BASIS SET INFORMATION
---------------------------------
There are 3 groups of distinct atoms

 Group   1 Type O   : 12s5p4d2f1g contracted to 6s4p3d1f1g pattern {711111/2111/211/2/1}
 Group   2 Type C   : 12s5p4d2f1g contracted to 6s4p3d1f1g pattern {711111/2111/211/2/1}
 Group   3 Type H   : 5s2p1d contracted to 3s1p1d pattern {311/2/1}

Atom   0O    basis set group =>   1
Atom   1O    basis set group =>   1
Atom   2C    basis set group =>   2
Atom   3C    basis set group =>   2
Atom   4C    basis set group =>   2
Atom   5C    basis set group =>   2
Atom   6C    basis set group =>   2
Atom   7C    basis set group =>   2
Atom   8C    basis set group =>   2
Atom   9C    basis set group =>   2
Atom  10C    basis set group =>   2
Atom  11C    basis set group =>   2
Atom  12C    basis set group =>   2
Atom  13C    basis set group =>   2
Atom  14C    basis set group =>   2
Atom  15C    basis set group =>   2
Atom  16C    basis set group =>   2
Atom  17C    basis set group =>   2
Atom  18C    basis set group =>   2
Atom  19C    basis set group =>   2
Atom  20H    basis set group =>   3
Atom  21H    basis set group =>   3
Atom  22H    basis set group =>   3
Atom  23H    basis set group =>   3
Atom  24H    basis set group =>   3
Atom  25H    basis set group =>   3
Atom  26H    basis set group =>   3
Atom  27H    basis set group =>   3
Atom  28H    basis set group =>   3
Atom  29H    basis set group =>   3
Atom  30H    basis set group =>   3
Atom  31H    basis set group =>   3
Atom  32H    basis set group =>   3
Atom  33H    basis set group =>   3
Atom  34H    basis set group =>   3
Atom  35H    basis set group =>   3
Atom  36H    basis set group =>   3
Atom  37H    basis set group =>   3
Atom  38H    basis set group =>   3
Atom  39H    basis set group =>   3
Atom  40C    basis set group =>   2
Atom  41O    basis set group =>   1
Atom  42C    basis set group =>   2
Atom  43C    basis set group =>   2
Atom  44O    basis set group =>   1
Atom  45O    basis set group =>   1
Atom  46H    basis set group =>   3
Atom  47H    basis set group =>   3


           ************************************************************
           *        Program running with 25 parallel MPI-processes    *
           *              working on a common directory               *
           ************************************************************
------------------------------------------------------------------------------
                             ORCA STARTUP CALCULATIONS
                           -- RI-GTO INTEGRALS CHOSEN --
------------------------------------------------------------------------------
------------------------------------------------------------------------------
                   ___                                                        
                  /   \      - P O W E R E D   B Y -                         
                 /     \                                                     
                 |  |  |   _    _      __       _____    __    __             
                 |  |  |  | |  | |    /  \     |  _  \  |  |  /  |          
                  \  \/   | |  | |   /    \    | | | |  |  | /  /          
                 / \  \   | |__| |  /  /\  \   | |_| |  |  |/  /          
                |  |  |   |  __  | /  /__\  \  |    /   |      \           
                |  |  |   | |  | | |   __   |  |    \   |  |\   \          
                \     /   | |  | | |  |  |  |  | |\  \  |  | \   \       
                 \___/    |_|  |_| |__|  |__|  |_| \__\ |__|  \__/        
                                                                              
                      - O R C A' S   B I G   F R I E N D -                    
                                      &                                       
                       - I N T E G R A L  F E E D E R -                       
                                                                              
 v1 FN, 2020, v2 2021, v3 2022-2024                                           
------------------------------------------------------------------------------


----------------------
SHARK INTEGRAL PACKAGE
----------------------

Number of atoms                             ...     48
Number of basis functions                   ...    938
Number of shells                            ...    374
Maximum angular momentum                    ...      3
Integral batch strategy                     ... SHARK/LIBINT Hybrid
RI-J (if used) integral strategy            ... SPLIT-RIJ (Revised 2003 algorithm where possible)
Printlevel                                  ...      1
Contraction scheme used                     ... SEGMENTED contraction
Prescreening option                         ... SCHWARTZ
   Thresh                                   ... 2.500e-11
   Tcut                                     ... 2.500e-12
   Tpresel                                  ... 2.500e-12 
Coulomb Range Separation                    ... NOT USED
Exchange Range Separation                   ... NOT USED
Multipole approximations                    ... NOT USED
Finite Nucleus Model                        ... NOT USED
CABS basis                                  ... NOT available
Auxiliary Coulomb fitting basis             ... AVAILABLE
   # of basis functions in Aux-J            ...   1516
   # of shells in Aux-J                     ...    500
   Maximum angular momentum in Aux-J        ...      4
Auxiliary J/K fitting basis                 ... NOT available
Auxiliary Correlation fitting basis         ... NOT available
Auxiliary 'external' fitting basis          ... NOT available

Checking pre-screening integrals            ... done (  0.0 sec) Dimension = 374
Check shell pair data                       ... done (  0.0 sec)
Shell pair information
Shell pair cut-off parameter TPreSel        ...   2.5e-12
Total number of shell pairs                 ...     70125
Shell pairs after pre-screening             ...     41572
Total number of primitive shell pairs       ...    213516
Primitive shell pairs kept                  ...     82298
          la=0 lb=0:  11226 shell pairs
          la=1 lb=0:  12330 shell pairs
          la=1 lb=1:   3424 shell pairs
          la=2 lb=0:   5699 shell pairs
          la=2 lb=1:   3209 shell pairs
          la=2 lb=2:    757 shell pairs
          la=3 lb=0:   2636 shell pairs
          la=3 lb=1:   1490 shell pairs
          la=3 lb=2:    649 shell pairs
          la=3 lb=3:    152 shell pairs

Calculating one electron integrals          ... done (  0.1 sec)
Calculating RI/J V-Matrix + Cholesky decomp.... done (  0.1 sec)
Calculating Nuclear repulsion               ... done (  0.0 sec) ENN=   2167.363929703218 Eh

Diagonalization of the overlap matrix:
Smallest eigenvalue                        ... 6.447e-06
Time for diagonalization                   ...    0.129 sec
Threshold for overlap eigenvalues          ... 1.000e-07
Number of eigenvalues below threshold      ... 0
Time for construction of square roots      ...    0.067 sec
Total time needed                          ...    0.202 sec

-------------------
DFT GRID GENERATION
-------------------

General Integration Accuracy     IntAcc      ... 4.388
Radial Grid Type                 RadialGrid  ... OptM3 with GC (2021)
Angular Grid (max. ang.)         AngularGrid ... 4 (Lebedev-302)
Angular grid pruning method      GridPruning ... 4 (adaptive)
Weight generation scheme         WeightScheme... mBecke (2022)
Basis function cutoff            BFCut       ... 1.0000e-11
Integration weight cutoff        WCut        ... 1.0000e-14
Partially contracted basis set               ... off
Rotationally invariant grid construction     ... off
Angular grids for H and He will be reduced by one unit

Total number of grid points                  ...   226089
Total number of batches                      ...     3555
Average number of points per batch           ...       63
Average number of grid points per atom       ...     4710

--------------------
COSX GRID GENERATION
--------------------

GRIDX 1
-------
General Integration Accuracy     IntAcc      ... 3.816
Radial Grid Type                 RadialGrid  ... OptM3 with GC (2021)
Angular Grid (max. ang.)         AngularGrid ... 1 (Lebedev-50)
Angular grid pruning method      GridPruning ... 4 (adaptive)
Weight generation scheme         WeightScheme... mBecke (2022)
Basis function cutoff            BFCut       ... 1.0000e-11
Integration weight cutoff        WCut        ... 1.0000e-14
Partially contracted basis set               ... on
Rotationally invariant grid construction     ... off
Angular grids for H and He will be reduced by one unit

Total number of grid points                  ...    28693
Total number of batches                      ...      253
Average number of points per batch           ...      113
Average number of grid points per atom       ...      598
UseSFitting                                  ... on

GRIDX 2
-------
General Integration Accuracy     IntAcc      ... 4.020
Radial Grid Type                 RadialGrid  ... OptM3 with GC (2021)
Angular Grid (max. ang.)         AngularGrid ... 2 (Lebedev-110)
Angular grid pruning method      GridPruning ... 4 (adaptive)
Weight generation scheme         WeightScheme... mBecke (2022)
Basis function cutoff            BFCut       ... 1.0000e-11
Integration weight cutoff        WCut        ... 1.0000e-14
Partially contracted basis set               ... on
Rotationally invariant grid construction     ... off
Angular grids for H and He will be reduced by one unit

Total number of grid points                  ...    62018
Total number of batches                      ...      511
Average number of points per batch           ...      121
Average number of grid points per atom       ...     1292
UseSFitting                                  ... on

GRIDX 3
-------
General Integration Accuracy     IntAcc      ... 4.338
Radial Grid Type                 RadialGrid  ... OptM3 with GC (2021)
Angular Grid (max. ang.)         AngularGrid ... 3 (Lebedev-194)
Angular grid pruning method      GridPruning ... 4 (adaptive)
Weight generation scheme         WeightScheme... mBecke (2022)
Basis function cutoff            BFCut       ... 1.0000e-11
Integration weight cutoff        WCut        ... 1.0000e-14
Partially contracted basis set               ... on
Rotationally invariant grid construction     ... off
Angular grids for H and He will be reduced by one unit

Total number of grid points                  ...   135581
Total number of batches                      ...     1083
Average number of points per batch           ...      125
Average number of grid points per atom       ...     2825
UseSFitting                                  ... on
Initializing property integral containers    ... done (  0.0 sec)

SHARK setup successfully completed in   2.9 seconds

Maximum memory used throughout the entire STARTUP-calculation: 93.6 MB


           ************************************************************
           *        Program running with 25 parallel MPI-processes    *
           *              working on a common directory               *
           ************************************************************
-------------------------------------------------------------------------------
                                 ORCA GUESS
                   Start orbitals & Density for SCF / CASSCF
-------------------------------------------------------------------------------

------------
SCF SETTINGS
------------
Hamiltonian:
 Density Functional     Method          .... DFT(GTOs)
 Exchange Functional    Exchange        .... B88
   X-Alpha parameter    XAlpha          ....  0.666667
   Becke's b parameter  XBeta           ....  0.004200
 Correlation Functional Correlation     .... LYP
 LDA part of GGA corr.  LDAOpt          .... VWN-5
 Gradients option       PostSCFGGA      .... off
 Hybrid DFT is turned on
   Fraction HF Exchange ScalHFX         ....  0.200000
   Scaling of DF-GGA-X  ScalDFX         ....  0.720000
   Scaling of DF-GGA-C  ScalDFC         ....  0.810000
   Scaling of DF-LDA-C  ScalLDAC        ....  1.000000
   Perturbative correction              ....  0.000000
   NL short-range parameter             ....  4.800000
 RI-approximation to the Coulomb term is turned on
   Number of AuxJ basis functions       .... 1516
   RIJ-COSX (HFX calculated with COS-X)).... on


General Settings:
 Integral files         IntName         .... honokiol2-opt_EC
 Hartree-Fock type      HFTyp           .... RHF
 Total Charge           Charge          ....    0
 Multiplicity           Mult            ....    1
 Number of Electrons    NEL             ....  188
 Basis Dimension        Dim             ....  938
 Nuclear Repulsion      ENuc            ....   2167.3639297032 Eh

Convergence Acceleration:
 AO-DIIS                CNVDIIS         .... on
   Start iteration      DIISMaxIt       ....    12
   Startup error        DIISStart       ....  0.200000
   # of expansion vecs  DIISMaxEq       ....     5
   Bias factor          DIISBfac        ....   1.050
   Max. coefficient     DIISMaxC        ....  10.000
 MO-DIIS                CNVKDIIS        .... off
 Trust-Rad. Augm. Hess. CNVTRAH         .... auto
   Auto Start mean grad. ratio tolernc. ....  1.125000
   Auto Start start iteration           ....    50
   Auto Start num. interpolation iter.  ....    10
   Max. Number of Micro iterations      ....    24
   Max. Number of Macro iterations      .... Maxiter - #DIIS iter
   Number of Davidson start vectors     ....     2
   Converg. threshold    (grad. norm)   ....   1.000e-05
   Grad. Scal. Fac. for Micro threshold ....   0.100
   Minimum threshold for Micro iter.    ....   1.000e-02
   NR start threshold (gradient norm)   ....   1.000e-04
   Initial trust radius                 ....   0.400
   Minimum AH scaling param. (alpha)    ....   1.000
   Maximum AH scaling param. (alpha)    .... 1000.000
   Quad. conv. algorithm                .... NR
   White noise on init. David. guess    .... on
   Maximum white noise                  ....   0.010
   Pseudo random numbers                .... off
   Inactive MOs                         .... canonical
   Orbital update algorithm             .... Taylor
   Preconditioner                       .... Diag
   Full preconditioner red. dimension   ....   250
 SOSCF                  CNVSOSCF        .... on
   Start iteration      SOSCFMaxIt      ....   150
   Startup grad/error   SOSCFStart      ....  0.003300
   Hessian update       SOSCFHessUp     .... L-BFGS
 Level Shifting         CNVShift        .... on
   Level shift para.    LevelShift      ....    0.2500
   Turn off err/grad.   ShiftErr        ....    0.0010
 Zerner damping         CNVZerner       .... off
 Static damping         CNVDamp         .... on
   Fraction old density DampFac         ....    0.7000
   Max. Damping (<1)    DampMax         ....    0.9800
   Min. Damping (>=0)   DampMin         ....    0.0000
   Turn off err/grad.   DampErr         ....    0.1000

SCF Procedure:
 Maximum # iterations   MaxIter         ....   125
 SCF integral mode      SCFMode         .... Direct
   Integral package                     .... SHARK and LIBINT hybrid scheme
 Reset frequency        DirectResetFreq ....    20
 Integral Threshold     Thresh          ....  2.500e-11 Eh
 Primitive CutOff       TCut            ....  2.500e-12 Eh

Convergence Tolerance:
 Convergence Check Mode ConvCheckMode   .... Total+1el-Energy
 Convergence forced     ConvForced      .... 0
 Energy Change          TolE            ....  1.000e-08 Eh
 1-El. energy change                    ....  1.000e-05 Eh
 Orbital Gradient       TolG            ....  1.000e-05
 Orbital Rotation angle TolX            ....  1.000e-05
 DIIS Error             TolErr          ....  5.000e-07

------------------------------
INITIAL GUESS: MODEL POTENTIAL
------------------------------
Loading Hartree-Fock densities                     ... done
Calculating cut-offs                               ... done
Initializing the effective Hamiltonian             ... done
Setting up the integral package (SHARK)            ... done
Starting the Coulomb interaction                   ... done (   0.2 sec)
Making the grid                                    ... done (   0.2 sec)
Mapping shells                                     ... done
Starting the XC term evaluation                    ... done (   0.1 sec)
  promolecular density results
     # of electrons  =    187.994688565
     EX              =   -155.551726564
     EC              =     -6.392363481
     EX+EC           =   -161.944090045
Transforming the Hamiltonian                       ... done (   0.1 sec)
Diagonalizing the Hamiltonian                      ... done (   0.1 sec)
Back transforming the eigenvectors                 ... done (   0.0 sec)
Now organizing SCF variables                       ... done
                      ------------------
                      INITIAL GUESS DONE (   0.8 sec)
                      ------------------
             **** ENERGY FILE WAS UPDATED (honokiol2-opt_EC.en.tmp) ****
Finished Guess after   1.6 sec
Maximum memory used throughout the entire GUESS-calculation: 75.5 MB


           ************************************************************
           *        Program running with 25 parallel MPI-processes    *
           *              working on a common directory               *
           ************************************************************

-------------------------------------------------------------------------------------------
                                      ORCA LEAN-SCF
                              memory conserving SCF solver
-------------------------------------------------------------------------------------------

----------------------------------------D-I-I-S--------------------------------------------
Iteration    Energy (Eh)           Delta-E    RMSDP     MaxDP     DIISErr   Damp  Time(sec)
-------------------------------------------------------------------------------------------
               ***  Starting incremental Fock matrix formation  ***
    1    -1188.6016754768770625     0.00e+00  1.21e-03  1.39e-01  3.05e-01  0.700   4.5
    2    -1188.9423320822161259    -3.41e-01  1.09e-03  1.50e-01  1.09e-01  0.700   2.8
                               ***Turning on AO-DIIS***
    3    -1189.0795548509672699    -1.37e-01  4.28e-04  4.49e-02  3.80e-02  0.700   2.5
    4    -1189.1619144286351002    -8.24e-02  6.00e-04  4.72e-02  1.87e-02  0.000   2.4
    5    -1189.3414229362692822    -1.80e-01  2.73e-04  3.91e-02  5.29e-03  0.000   2.5
                              *** Initializing SOSCF ***
---------------------------------------S-O-S-C-F--------------------------------------
Iteration    Energy (Eh)           Delta-E    RMSDP     MaxDP     MaxGrad    Time(sec)
--------------------------------------------------------------------------------------
    6    -1189.3423512088324969    -9.28e-04  9.89e-05  1.32e-02  1.86e-03     2.6
               *** Restarting incremental Fock matrix formation ***
    7    -1189.3423994126655998    -4.82e-05  7.46e-05  8.82e-03  2.72e-04     4.3
    8    -1189.3423899934941801     9.42e-06  1.35e-05  1.36e-03  6.40e-04     3.2
    9    -1189.3424074036911406    -1.74e-05  9.49e-06  8.20e-04  6.42e-05     2.7
   10    -1189.3424070647142798     3.39e-07  3.21e-06  4.00e-04  1.05e-04     2.6
   11    -1189.3424077360391493    -6.71e-07  1.99e-06  1.45e-04  1.34e-05     2.3
   12    -1189.3424077341883276     1.85e-09  1.10e-06  1.03e-04  2.03e-05     2.2
                 **** Energy Check signals convergence ****

               *****************************************************
               *                     SUCCESS                       *
               *           SCF CONVERGED AFTER  12 CYCLES          *
               *****************************************************

Recomputing exchange energy using gridx3       ... done (    6.400 sec)
Old exchange energy                            :    -31.592169670 Eh
New exchange energy                            :    -31.592186626 Eh
Exchange energy change after final integration :     -0.000016956 Eh
Total energy after final integration           :  -1189.342424690 Eh
             **** ENERGY FILE WAS UPDATED (honokiol2-opt_EC.en.tmp) ****

----------------
TOTAL SCF ENERGY
----------------

Total Energy       :      -1189.34242469019046 Eh          -32363.65271 eV

Components:
Nuclear Repulsion  :       2167.36392970321822 Eh           58976.97086 eV
Electronic Energy  :      -3356.70633743740655 Eh          -91340.62311 eV
One Electron Energy:      -5925.49249847137253 Eh         -161240.84821 eV
Two Electron Energy:       2568.78616103396598 Eh           69900.22510 eV

Virial components:
Potential Energy   :      -2373.50671566578922 Eh          -64586.40124 eV
Kinetic Energy     :       1184.16429097559876 Eh           32222.74853 eV
Virial Ratio       :          2.00437281697654

DFT components:
N(Alpha)           :       93.999959745786 electrons
N(Beta)            :       93.999959745786 electrons
N(Total)           :      187.999919491572 electrons
E(X)               :     -125.583717328039 Eh       
E(C)               :       -7.542106278488 Eh       
E(XC)              :     -133.125823606527 Eh       

---------------
SCF CONVERGENCE
---------------

  Last Energy change         ...   -1.8508e-09  Tolerance :   1.0000e-08
  Last MAX-Density change    ...    1.0297e-04  Tolerance :   1.0000e-07
  Last RMS-Density change    ...    1.1041e-06  Tolerance :   5.0000e-09
  Last DIIS Error            ...    1.8605e-03  Tolerance :   5.0000e-07
  Last Orbital Gradient      ...    2.0319e-05  Tolerance :   1.0000e-05
  Last Orbital Rotation      ...    3.1724e-05  Tolerance :   1.0000e-05


----------------
ORBITAL ENERGIES
----------------

  NO   OCC          E(Eh)            E(eV) 
   0   2.0000     -19.187569      -522.1203 
   1   2.0000     -19.187101      -522.1076 
   2   2.0000     -19.159883      -521.3669 
   3   2.0000     -19.141372      -520.8632 
   4   2.0000     -19.113566      -520.1066 
   5   2.0000     -10.345484      -281.5149 
   6   2.0000     -10.258492      -279.1478 
   7   2.0000     -10.257138      -279.1109 
   8   2.0000     -10.241036      -278.6728 
   9   2.0000     -10.225150      -278.2405 
  10   2.0000     -10.201984      -277.6101 
  11   2.0000     -10.199124      -277.5323 
  12   2.0000     -10.192333      -277.3475 
  13   2.0000     -10.188796      -277.2512 
  14   2.0000     -10.186009      -277.1754 
  15   2.0000     -10.181578      -277.0548 
  16   2.0000     -10.181361      -277.0489 
  17   2.0000     -10.176969      -276.9294 
  18   2.0000     -10.176520      -276.9172 
  19   2.0000     -10.172101      -276.7969 
  20   2.0000     -10.171842      -276.7899 
  21   2.0000     -10.169102      -276.7153 
  22   2.0000     -10.166095      -276.6335 
  23   2.0000     -10.165473      -276.6166 
  24   2.0000     -10.159651      -276.4581 
  25   2.0000     -10.158814      -276.4354 
  26   2.0000      -1.162445       -31.6317 
  27   2.0000      -1.067894       -29.0589 
  28   2.0000      -1.051603       -28.6156 
  29   2.0000      -1.049066       -28.5465 
  30   2.0000      -1.045554       -28.4510 
  31   2.0000      -0.872667       -23.7465 
  32   2.0000      -0.851171       -23.1615 
  33   2.0000      -0.825219       -22.4553 
  34   2.0000      -0.797003       -21.6875 
  35   2.0000      -0.791284       -21.5319 
  36   2.0000      -0.775578       -21.1045 
  37   2.0000      -0.766785       -20.8653 
  38   2.0000      -0.739978       -20.1358 
  39   2.0000      -0.722772       -19.6676 
  40   2.0000      -0.699747       -19.0411 
  41   2.0000      -0.686894       -18.6913 
  42   2.0000      -0.673455       -18.3256 
  43   2.0000      -0.634888       -17.2762 
  44   2.0000      -0.622923       -16.9506 
  45   2.0000      -0.614317       -16.7164 
  46   2.0000      -0.595739       -16.2109 
  47   2.0000      -0.586955       -15.9719 
  48   2.0000      -0.580693       -15.8014 
  49   2.0000      -0.554250       -15.0819 
  50   2.0000      -0.551657       -15.0114 
  51   2.0000      -0.551532       -15.0080 
  52   2.0000      -0.536763       -14.6061 
  53   2.0000      -0.525884       -14.3100 
  54   2.0000      -0.513786       -13.9808 
  55   2.0000      -0.500960       -13.6318 
  56   2.0000      -0.492309       -13.3964 
  57   2.0000      -0.484725       -13.1900 
  58   2.0000      -0.473660       -12.8890 
  59   2.0000      -0.462052       -12.5731 
  60   2.0000      -0.459621       -12.5069 
  61   2.0000      -0.451365       -12.2823 
  62   2.0000      -0.447542       -12.1782 
  63   2.0000      -0.446808       -12.1583 
  64   2.0000      -0.444314       -12.0904 
  65   2.0000      -0.431925       -11.7533 
  66   2.0000      -0.429678       -11.6921 
  67   2.0000      -0.425470       -11.5776 
  68   2.0000      -0.422542       -11.4979 
  69   2.0000      -0.421029       -11.4568 
  70   2.0000      -0.408648       -11.1199 
  71   2.0000      -0.401894       -10.9361 
  72   2.0000      -0.400026       -10.8853 
  73   2.0000      -0.392383       -10.6773 
  74   2.0000      -0.388139       -10.5618 
  75   2.0000      -0.385984       -10.5032 
  76   2.0000      -0.379072       -10.3151 
  77   2.0000      -0.372162       -10.1270 
  78   2.0000      -0.364089        -9.9074 
  79   2.0000      -0.356799        -9.7090 
  80   2.0000      -0.355086        -9.6624 
  81   2.0000      -0.348498        -9.4831 
  82   2.0000      -0.340428        -9.2635 
  83   2.0000      -0.329358        -8.9623 
  84   2.0000      -0.320281        -8.7153 
  85   2.0000      -0.319766        -8.7013 
  86   2.0000      -0.317927        -8.6512 
  87   2.0000      -0.302662        -8.2358 
  88   2.0000      -0.291256        -7.9255 
  89   2.0000      -0.263359        -7.1664 
  90   2.0000      -0.262531        -7.1438 
  91   2.0000      -0.257992        -7.0203 
  92   2.0000      -0.229482        -6.2445 
  93   2.0000      -0.209702        -5.7063 
  94   0.0000      -0.033497        -0.9115 
  95   0.0000      -0.025960        -0.7064 
  96   0.0000      -0.011794        -0.3209 
  97   0.0000       0.000820         0.0223 
  98   0.0000       0.003348         0.0911 
  99   0.0000       0.004587         0.1248 
 100   0.0000       0.024111         0.6561 
 101   0.0000       0.027389         0.7453 
 102   0.0000       0.029164         0.7936 
 103   0.0000       0.038830         1.0566 
 104   0.0000       0.047721         1.2985 
*Only the first 10 virtual orbitals were printed.

                    ********************************
                    * MULLIKEN POPULATION ANALYSIS *
                    ********************************

-----------------------
MULLIKEN ATOMIC CHARGES
-----------------------
   0 O :   -0.381772
   1 O :   -0.410033
   2 C :    0.154374
   3 C :    0.060328
   4 C :    0.090540
   5 C :   -0.273428
   6 C :    0.124053
   7 C :   -0.257987
   8 C :    0.188211
   9 C :   -0.248820
  10 C :    0.250563
  11 C :   -0.254213
  12 C :   -0.192705
  13 C :   -0.136938
  14 C :   -0.203991
  15 C :   -0.228452
  16 C :   -0.140421
  17 C :   -0.087508
  18 C :   -0.265065
  19 C :   -0.266781
  20 H :    0.123741
  21 H :    0.118819
  22 H :    0.147360
  23 H :    0.122143
  24 H :    0.120985
  25 H :    0.100671
  26 H :    0.105672
  27 H :    0.094714
  28 H :    0.111731
  29 H :    0.109048
  30 H :    0.119517
  31 H :    0.101985
  32 H :    0.329623
  33 H :    0.321765
  34 H :    0.125907
  35 H :    0.118631
  36 H :    0.107895
  37 H :    0.100439
  38 H :    0.105341
  39 H :    0.113296
  40 C :   -0.010869
  41 O :   -0.252365
  42 C :    0.357337
  43 C :   -0.020158
  44 O :   -0.254933
  45 O :   -0.265212
  46 H :    0.110532
  47 H :    0.116430
Sum of atomic charges:    0.0000000

--------------------------------
MULLIKEN REDUCED ORBITAL CHARGES
--------------------------------
  0 O s       :     3.767855  s :     3.767855
      pz      :     1.466043  p :     4.581212
      px      :     1.399470
      py      :     1.715699
      dz2     :     0.010244  d :     0.031017
      dxz     :     0.004149
      dyz     :     0.006813
      dx2y2   :     0.004075
      dxy     :     0.005736
      f0      :     0.000248  f :     0.001688
      f+1     :     0.000384
      f-1     :     0.000258
      f+2     :     0.000195
      f-2     :     0.000169
      f+3     :     0.000072
      f-3     :     0.000363

  1 O s       :     3.768810  s :     3.768810
[...]
   173. D(O   0,C   8,C   2,C   7)    178.51  0.000042    0.06    178.57   
   174. D(O   0,C   8,C   2,C   3)     -2.03 -0.000021    0.11     -1.92   
   175. D(C  15,C   8,O   0,O  45)    148.26 -0.000023   -0.77    147.49   
   176. D(C   2,C   8,O   0,O  45)    -32.19 -0.000075   -0.72    -32.91   
   177. D(C   2,C   8,O   0,H  32)    -21.05 -0.000281    1.60    -19.45   
   178. D(H  22,C   9,C   3,C   2)      0.70  0.000018   -0.02      0.68   
   179. D(C  14,C   9,C   3,C   2)   -178.77  0.000017    0.33   -178.44   
   180. D(C  14,C   9,C   3,C   5)     -0.15 -0.000097    0.18      0.03   
   181. D(H  22,C   9,C   3,C   5)    179.32 -0.000095   -0.16    179.16   
   182. D(C  14,C  10,C   4,C  11)   -178.25 -0.000392    0.10   -178.15   
   183. D(C  14,C  10,C   4,C   5)     -0.17 -0.000225    0.26      0.09   
   184. D(O   1,C  10,C   4,C  11)     -0.83 -0.000227    0.21     -0.62   
   185. D(O   1,C  10,C   4,C   5)    177.25 -0.000060    0.37    177.62   
   186. D(C  14,C  10,O   1,H  33)   -157.20 -0.000035    1.30   -155.90   
   187. D(C   4,C  10,O   1,H  33)     25.29 -0.000206    1.21     26.50   
   188. D(H  24,C  11,C   4,C  10)    178.80  0.000140   -0.78    178.03   
   189. D(H  24,C  11,C   4,C   5)      0.78 -0.000022   -0.95     -0.16   
   190. D(H  23,C  11,C   4,C  10)     62.94  0.000058   -0.99     61.96   
   191. D(H  23,C  11,C   4,C   5)   -115.08 -0.000104   -1.16   -116.23   
   192. D(C  16,C  11,C   4,C  10)    -60.20  0.000184   -0.91    -61.11   
   193. D(C  16,C  11,C   4,C   5)    121.78  0.000022   -1.08    120.70   
   194. D(H  26,C  12,C   6,C   7)   -170.26  0.000027   -0.01   -170.28   
   195. D(H  25,C  12,C   6,C  13)    126.02  0.000036   -0.01    126.01   
   196. D(H  25,C  12,C   6,C   7)    -53.87  0.000035   -0.00    -53.88   
   197. D(C  17,C  12,C   6,C  13)   -111.39  0.000033   -0.00   -111.39   
   198. D(C  17,C  12,C   6,C   7)     68.72  0.000032    0.00     68.72   
   199. D(H  27,C  13,C   6,C  12)     -0.44 -0.000008   -0.04     -0.48   
   200. D(H  27,C  13,C   6,C   7)    179.46 -0.000007   -0.04    179.41   
   201. D(C  15,C  13,C   6,C  12)    179.24 -0.000005    0.06    179.30   
   202. D(C  15,C  13,C   6,C   7)     -0.86 -0.000004    0.05     -0.80   
   203. D(H  28,C  14,C  10,C   4)   -178.99  0.000235    0.05   -178.95   
   204. D(H  28,C  14,C  10,O   1)      3.45  0.000082   -0.04      3.41   
   205. D(C   9,C  14,C  10,C   4)      1.05  0.000165   -0.33      0.72   
   206. D(C   9,C  14,C  10,O   1)   -176.50  0.000011   -0.42   -176.92   
   207. D(H  28,C  14,C   9,H  22)     -0.32 -0.000071    0.06     -0.26   
   208. D(H  28,C  14,C   9,C   3)    179.16 -0.000068   -0.29    178.87   
   209. D(C  10,C  14,C   9,H  22)    179.64  0.000001    0.45    180.09   
   210. D(C  10,C  14,C   9,C   3)     -0.89  0.000004    0.10     -0.78   
   211. D(C  13,C  15,C   8,C   2)      0.91  0.000020   -0.07      0.83   
   212. D(C  13,C  15,C   8,O   0)   -179.52 -0.000031   -0.03   -179.56   
   213. D(H  29,C  15,C  13,H  27)      1.04 -0.000012    0.04      1.08   
   214. D(H  29,C  15,C  13,C   6)   -178.65 -0.000015   -0.06   -178.71   
   215. D(C   8,C  15,C  13,H  27)   -179.78 -0.000014    0.09   -179.69   
   216. D(C   8,C  15,C  13,C   6)      0.54 -0.000016   -0.01      0.53   
   217. D(H  29,C  15,C   8,C   2)   -179.88  0.000025   -0.03   -179.91   
   218. D(H  29,C  15,C   8,O   0)     -0.31 -0.000026    0.01     -0.30   
   219. D(H  30,C  16,C  11,H  24)     66.93  0.000108   -1.48     65.45   
   220. D(H  30,C  16,C  11,H  23)   -177.49 -0.000045   -1.13   -178.62   
   221. D(H  30,C  16,C  11,C   4)    -53.72  0.000025   -1.22    -54.94   
   222. D(C  18,C  16,C  11,H  24)   -113.47  0.000096   -1.58   -115.04   
   223. D(C  18,C  16,C  11,H  23)      2.12 -0.000058   -1.23      0.88   
   224. D(C  18,C  16,C  11,C   4)    125.88  0.000012   -1.32    124.57   
   225. D(H  31,C  17,C  12,H  25)    179.46 -0.000009    0.04    179.50   
   226. D(H  31,C  17,C  12,C   6)     56.20  0.000011    0.03     56.23   
   227. D(C  19,C  17,C  12,H  26)    115.90 -0.000043    0.12    116.02   
   228. D(C  19,C  17,C  12,H  25)     -0.10 -0.000002    0.06     -0.04   
   229. D(C  19,C  17,C  12,C   6)   -123.35  0.000018    0.05   -123.31   
   230. D(H  35,C  18,C  16,H  30)   -179.46 -0.000007    0.13   -179.33   
   231. D(H  35,C  18,C  16,C  11)      0.95  0.000006    0.23      1.18   
   232. D(H  34,C  18,C  16,H  30)     -0.80 -0.000006    0.04     -0.75   
   233. D(H  34,C  18,C  16,C  11)    179.61  0.000007    0.15    179.76   
   234. D(H  37,C  19,C  17,H  31)   -179.63  0.000009   -0.03   -179.66   
   235. D(H  37,C  19,C  17,C  12)     -0.09  0.000001   -0.05     -0.14   
   236. D(H  36,C  19,C  17,H  31)      0.61  0.000008   -0.01      0.59   
   237. D(H  36,C  19,C  17,C  12)   -179.85  0.000001   -0.03   -179.89   
   238. D(O  45,C  42,O  41,C  43)   -172.76 -0.000234    1.16   -171.60   
   239. D(O  44,C  42,O  41,C  43)      7.59 -0.000191    1.05      8.64   
   240. D(H  47,C  43,O  41,C  42)    104.53  0.000145   -1.89    102.64   
   241. D(C  40,C  43,O  41,C  42)    -15.05  0.000107   -1.73    -16.78   
   242. D(H  39,C  43,O  41,C  42)   -135.62  0.000220   -1.94   -137.56   
   243. D(H  47,C  43,C  40,H  38)    142.57 -0.000242    1.94    144.51   
   244. D(O  41,C  43,C  40,H  46)    133.43 -0.000300    1.63    135.05   
   245. D(O  41,C  43,C  40,O  44)     16.46 -0.000038    1.72     18.18   
   246. D(O  41,C  43,C  40,H  38)   -100.73 -0.000143    1.81    -98.92   
   247. D(H  39,C  43,C  40,H  46)   -109.42 -0.000140    1.64   -107.77   
   248. D(H  39,C  43,C  40,O  44)    133.61  0.000122    1.74    135.35   
   249. D(H  39,C  43,C  40,H  38)     16.42  0.000017    1.83     18.25   
   250. D(C  40,O  44,C  42,O  45)   -175.50  0.000214    0.05   -175.44   
   251. D(C  40,O  44,C  42,O  41)      4.15  0.000168    0.16      4.30   
   252. D(C  42,O  44,C  40,H  46)   -133.33  0.000142   -1.21   -134.54   
   253. D(C  42,O  44,C  40,C  43)    -13.03 -0.000025   -1.21    -14.24   
   254. D(C  42,O  44,C  40,H  38)    107.24 -0.000101   -1.16    106.08   
   255. D(O   0,O  45,C  42,O  44)   -144.17  0.000110    9.66   -134.50   
   256. D(O   0,O  45,C  42,O  41)     36.24  0.000160    9.55     45.78   
   257. D(C  42,O  45,O   0,H  32)     51.66  0.000149   -6.71     44.95   
   258. D(C  42,O  45,O   0,C   8)     93.57 -0.000219   -5.40     88.16   
    ----------------------------------------------------------------------------

Geometry step timings:
Preparation and reading OPT file:      0.002 s ( 9.581 %)
Internal coordinates            :      0.000 s ( 0.255 %)
B/P matrices and projection     :      0.006 s (36.456 %)
Hessian update/contruction      :      0.001 s ( 7.373 %)
Making the step                 :      0.005 s (29.175 %)
Converting the step to Cartesian:      0.000 s ( 2.920 %)
Storing new data                :      0.000 s ( 0.176 %)
Checking convergence            :      0.000 s ( 0.195 %)
Final printing                  :      0.002 s (13.851 %)
Total time                      :      0.016 s

Time for energy+gradient        :     58.901 s
Time for complete geometry iter :     59.806 s

         *************************************************************
         *                GEOMETRY OPTIMIZATION CYCLE  50            *
         *************************************************************
---------------------------------
CARTESIAN COORDINATES (ANGSTROEM)
---------------------------------
  O      1.403945    1.712651    2.413825
  O     -3.833218   -1.825003    2.351745
  C      1.163996    0.159555    0.556661
  C     -0.152906   -0.353339    1.018866
  C     -2.513178   -0.835604    0.566607
  C     -1.266770   -0.349116    0.174070
  C      2.987448    0.069885   -1.077231
  C      1.737478   -0.337237   -0.617110
  C      1.874235    1.137021    1.278828
  C     -0.315707   -0.887704    2.300899
  C     -2.636372   -1.364627    1.858339
  C     -3.705684   -0.756264   -0.366086
  C      3.569383   -0.507149   -2.353957
  C      3.678177    1.018480   -0.323479
  C     -1.539126   -1.394625    2.712982
  C      3.128819    1.548841    0.834264
  C     -4.310209   -2.096349   -0.695232
  C      2.830829   -0.074794   -3.591165
  C     -5.585786   -2.427339   -0.512897
  C      2.281714   -0.893319   -4.480985
  H     -1.166419    0.074675   -0.818757
  H      1.190186   -1.089753   -1.174396
  H      0.527597   -0.920943    2.978950
  H     -4.478820   -0.107746    0.059811
  H     -3.376427   -0.280677   -1.294247
  H      3.579738   -1.600263   -2.306662
  H      4.613686   -0.186826   -2.432952
  H      4.658374    1.351876   -0.645978
  H     -1.656784   -1.824479    3.699453
  H      3.655150    2.300717    1.408258
  H     -3.624536   -2.833510   -1.105444
  H      2.750473    0.999762   -3.737448
  H      0.441852    1.616242    2.506923
  H     -4.397534   -2.116670    1.619690
  H     -5.960551   -3.408904   -0.774136
  H     -6.306135   -1.718672   -0.116104
  H      1.763365   -0.517778   -5.354661
  H      2.334257   -1.971359   -4.369889
  H     -5.164259    2.566633    4.235477
  H     -4.230771    1.071463    5.893096
  C     -4.662719    1.690932    3.820181
  O     -2.554780    1.313796    4.718497
  C     -2.415402    1.949172    3.535109
  C     -3.913972    0.869111    4.872249
  O     -3.613755    2.137765    2.947077
  O     -1.378002    2.303042    3.067466
  H     -5.367262    1.099838    3.235968
  H     -3.955288   -0.201329    4.669934

----------------------------
CARTESIAN COORDINATES (A.U.)
----------------------------
  NO LB      ZA    FRAG     MASS         X           Y           Z
   0 O     8.0000    0    15.999    2.653072    3.236441    4.561468
   1 O     8.0000    0    15.999   -7.243733   -3.448757    4.444154
   2 C     6.0000    0    12.011    2.199634    0.301515    1.051936
   3 C     6.0000    0    12.011   -0.288951   -0.667714    1.925377
   4 C     6.0000    0    12.011   -4.749219   -1.579063    1.070731
   5 C     6.0000    0    12.011   -2.393848   -0.659734    0.328944
   6 C     6.0000    0    12.011    5.645459    0.132063   -2.035671
   7 C     6.0000    0    12.011    3.283357   -0.637286   -1.166169
   8 C     6.0000    0    12.011    3.541790    2.148659    2.416634
   9 C     6.0000    0    12.011   -0.596600   -1.677517    4.348069
  10 C     6.0000    0    12.011   -4.982022   -2.578771    3.511751
  11 C     6.0000    0    12.011   -7.002728   -1.429133   -0.691803
  12 C     6.0000    0    12.011    6.745157   -0.958373   -4.448335
  13 C     6.0000    0    12.011    6.950747    1.924648   -0.611286
  14 C     6.0000    0    12.011   -2.908527   -2.635459    5.126792
  15 C     6.0000    0    12.011    5.912610    2.926885    1.576531
  16 C     6.0000    0    12.011   -8.145115   -3.961525   -1.313797
  17 C     6.0000    0    12.011    5.349491   -0.141340   -6.786319
  18 C     6.0000    0    12.011  -10.555605   -4.587005   -0.969235
  19 C     6.0000    0    12.011    4.311814   -1.688128   -8.467835
  20 H     1.0000    0     1.008   -2.204213    0.141116   -1.547226
  21 H     1.0000    0     1.008    2.249126   -2.059335   -2.219287
  22 H     1.0000    0     1.008    0.997013   -1.740329    5.629399
  23 H     1.0000    0     1.008   -8.463743   -0.203610    0.113027
  24 H     1.0000    0     1.008   -6.380522   -0.530403   -2.445773
  25 H     1.0000    0     1.008    6.764725   -3.024058   -4.358960
  26 H     1.0000    0     1.008    8.718603   -0.353051   -4.597613
  27 H     1.0000    0     1.008    8.803051    2.554676   -1.220722
  28 H     1.0000    0     1.008   -3.130867   -3.447765    6.990953
  29 H     1.0000    0     1.008    6.907233    4.347726    2.661222
  30 H     1.0000    0     1.008   -6.849380   -5.354557   -2.088987
  31 H     1.0000    0     1.008    5.197640    1.889277   -7.062754
  32 H     1.0000    0     1.008    0.834980    3.054256    4.737398
  33 H     1.0000    0     1.008   -8.310135   -3.999927    3.060771
  34 H     1.0000    0     1.008  -11.263808   -6.441895   -1.462905
  35 H     1.0000    0     1.008  -11.916868   -3.247819   -0.219404
  36 H     1.0000    0     1.008    3.332277   -0.978458  -10.118843
  37 H     1.0000    0     1.008    4.411106   -3.725329   -8.257894
  38 H     1.0000    0     1.008   -9.759035    4.850233    8.003892
  39 H     1.0000    0     1.008   -7.994998    2.024772   11.136338
  40 C     6.0000    0    12.011   -8.811262    3.195398    7.219096
  41 O     8.0000    0    15.999   -4.827834    2.482715    8.916666
  42 C     6.0000    0    12.011   -4.564448    3.683402    6.680388
  43 C     6.0000    0    12.011   -7.396335    1.642382    9.207217
  44 O     8.0000    0    15.999   -6.829007    4.039790    5.569168
  45 O     8.0000    0    15.999   -2.604047    4.352119    5.796670
  46 H     1.0000    0     1.008  -10.142656    2.078392    6.115093
  47 H     1.0000    0     1.008   -7.474410   -0.380456    8.824896

--------------------------------
INTERNAL COORDINATES (ANGSTROEM)
--------------------------------
 O      0   0   0     0.000000000000     0.00000000     0.00000000
 O      1   0   0     6.320343132655     0.00000000     0.00000000
 C      1   2   0     2.432846728667    63.47778470     0.00000000
 C      3   1   2     1.486918125774    94.02908532     0.49705816
 C      2   1   3     2.430665746472    47.88454648   325.45250674
 C      5   2   1     1.394378004744   146.53405000    23.97610441
 C      3   1   2     2.450024369216   117.32531200   181.47770478
 C      7   3   1     1.392798108175    28.65176144   181.82273007
 C      1   2   3     1.356738782029    92.38032033   358.87490390
 C      4   3   1     1.398449225288   121.32421199   304.36007746
 C      2   1   3     1.373985688156    25.06752778   357.72846327
 C      5   2   1     1.516007954700    92.63378084   207.14936818
 C      7   3   1     1.517117690229   149.38632173   181.16291425
 C      7   3   1     1.394661943705    89.04250574     1.58562895
 C     10   4   3     1.386915570492   120.98021264   181.62328395
 C     14   7   3     1.386883543756   121.00303545   359.04711905
 C     12   5   2     1.506523481054   113.79757657   298.63968341
 C     13   7   3     1.504352778155   113.23322083    69.09930400
 C     17  12   5     1.330374420654   125.17723415   124.57458145
 C     18  13   7     1.327889488241   125.23724044   236.69137420
 H      6   5   2     1.084146692125   118.48458550   182.84507665
 H      8   7   3     1.084608403119   119.07253237   181.57756230
 H     10   4   3     1.082598038384   119.68476523     0.70951589
 H     12   5   2     1.095309983603   110.30385368    61.72195802
 H     12   5   2     1.093652966509   107.94315701   177.77871108
 H     13   7   3     1.094185284286   110.31805699   306.49824324
 H     13   7   3     1.095178275686   108.37377723   190.09598476
 H     14   7   3     1.084410242597   119.73921067   179.27584157
 H     15  10   4     1.082471086541   120.78336808   178.83946611
 H     16  14   7     1.082502653920   121.04137133   181.32596555
 H     17  12   5     1.087119474349   115.62766705   305.06920556
 H     18  13   7     1.087440344702   115.52520261    56.22714845
 H      1   2   3     0.971382842091    28.91877205   134.44659060
 H      2   1   3     0.969239670466   131.17005937   322.19094767
 H     19  17  12     1.082665750502   121.62676655   179.75792225
 H     19  17  12     1.085613788778   121.59393017     1.18250139
 H     20  18  13     1.083063645260   121.64991160   180.11067998
 H     20  18  13     1.085022309637   121.58793628   359.85527281
 H      2   1   3     4.960502556733    73.92326521   214.92339733
 H     39   2   1     2.419635361016    67.01840976   275.75183814
 C     39   2   1     1.091267423393    11.96467657   356.55262243
 O     40  39   2     2.060911449061    81.40964224    64.71126311
 C     42  40  39     1.350383336016   129.69656896   353.47140511
 C     40  39   2     1.087858546150    65.44416070    24.58906896
 O     43  42  40     1.348109222344   110.87454915   342.43875871
 O     43  42  40     1.191684311239   124.99205976   162.21781928
 H     41  39  45     1.089531191251   110.01206547   241.60292755
 H     44  40  39     1.090174616306   110.22787319   224.50503211

---------------------------
INTERNAL COORDINATES (A.U.)
---------------------------
 O      0   0   0     0.000000000000     0.00000000     0.00000000
 O      1   0   0    11.943717593127     0.00000000     0.00000000
 C      1   2   0     4.597414042986    63.47778470     0.00000000
 C      3   1   2     2.809868041277    94.02908532     0.49705816
 C      2   1   3     4.593292583935    47.88454648   325.45250674
 C      5   2   1     2.634992556130   146.53405000    23.97610441
 C      3   1   2     4.629875079251   117.32531200   181.47770478
 C      7   3   1     2.632006984294    28.65176144   181.82273007
 C      1   2   3     2.563864733306    92.38032033   358.87490390
 C      4   3   1     2.642686047989   121.32421199   304.36007746
 C      2   1   3     2.596456662543    25.06752778   357.72846327
 C      5   2   1     2.864839851229    92.63378084   207.14936818
 C      7   3   1     2.866936947459   149.38632173   181.16291425
 C      7   3   1     2.635529123004    89.04250574     1.58562895
 C     10   4   3     2.620890599102   120.98021264   181.62328395
 C     14   7   3     2.620830077341   121.00303545   359.04711905
 C     12   5   2     2.846916793515   113.79757657   298.63968341
 C     13   7   3     2.842814759517   113.23322083    69.09930400
 C     17  12   5     2.514043310610   125.17723415   124.57458145
 C     18  13   7     2.509347468888   125.23724044   236.69137420
 H      6   5   2     2.048740337113   118.48458550   182.84507665
 H      8   7   3     2.049612844445   119.07253237   181.57756230
 H     10   4   3     2.045813805667   119.68476523     0.70951589
 H     12   5   2     2.069835900760   110.30385368    61.72195802
 H     12   5   2     2.066704592252   107.94315701   177.77871108
 H     13   7   3     2.067710527066   110.31805699   306.49824324
 H     13   7   3     2.069587008867   108.37377723   190.09598476
 H     14   7   3     2.049238375328   119.73921067   179.27584157
 H     15  10   4     2.045573901451   120.78336808   178.83946611
 H     16  14   7     2.045633555151   121.04137133   181.32596555
 H     17  12   5     2.054358081371   115.62766705   305.06920556
 H     18  13   7     2.054964438465   115.52520261    56.22714845
 H      1   2   3     1.835647542741    28.91877205   134.44659060
 H      2   1   3     1.831597535312   131.17005937   322.19094767
 H     19  17  12     2.045941763026   121.62676655   179.75792225
 H     19  17  12     2.051512748000   121.59393017     1.18250139
 H     20  18  13     2.046693675148   121.64991160   180.11067998
 H     20  18  13     2.050395014408   121.58793628   359.85527281
 H      2   1   3     9.373991318841    73.92326521   214.92339733
 H     39   2   1     4.572448176271    67.01840976   275.75183814
 C     39   2   1     2.062196569083    11.96467657   356.55262243
 O     40  39   2     3.894558224988    81.40964224    64.71126311
 C     42  40  39     2.551854680881   129.69656896   353.47140511
 C     40  39   2     2.055754724669    65.44416070    24.58906896
 O     43  42  40     2.547557228844   110.87454915   342.43875871
 O     43  42  40     2.251956986332   124.99205976   162.21781928
 H     41  39  45     2.058915565829   110.01206547   241.60292755
 H     44  40  39     2.060131462971   110.22787319   224.50503211


ORCA finished by error termination in Startup
Calling Command: mpirun -np 25  /home/yongsang/orca_6_0_1_linux_x86-64_shared_openmpi416/orca_startup_mpi honokiol2-opt_EC.int.tmp honokiol2-opt_EC 
[file orca_tools/qcmsg.cpp, line 394]: 
  .... aborting the run

