
                                 *****************
                                 * O   R   C   A *
                                 *****************

                                            #,                                       
                                            ###                                      
                                            ####                                     
                                            #####                                    
                                            ######                                   
                                           ########,                                 
                                     ,,################,,,,,                         
                               ,,#################################,,                 
                          ,,##########################################,,             
                       ,#########################################, ''#####,          
                    ,#############################################,,   '####,        
                  ,##################################################,,,,####,       
                ,###########''''           ''''###############################       
              ,#####''   ,,,,##########,,,,          '''####'''          '####       
            ,##' ,,,,###########################,,,                        '##       
           ' ,,###''''                  '''############,,,                           
         ,,##''                                '''############,,,,        ,,,,,,###''
      ,#''                                            '''#######################'''  
     '                                                          ''''####''''         
             ,#######,   #######,   ,#######,      ##                                
            ,#'     '#,  ##    ##  ,#'     '#,    #''#        ,####,   ,####,        
            ##       ##  ##   ,#'  ##            #'  '#       #'       #'  '#        
            ##       ##  #######   ##           ,######,      #####,   #    #        
            '#,     ,#'  ##    ##  '#,     ,#' ,#      #,     #,   #   #,  ,#        
             '#######'   ##     ##  '#######'  #'      '#     '####' # '####'        



                #########################################################
                #                        -***-                          #
                #          Department of theory and spectroscopy        #
                #                                                       #
                #                      Frank Neese                      #
                #                                                       #
                #     Directorship, Architecture, Infrastructure        #
                #                    SHARK, DRIVERS                     #
                #        Core code/Algorithms in most modules           #
                #                                                       #
                #        Max Planck Institute fuer Kohlenforschung      #
                #                Kaiser Wilhelm Platz 1                 #
                #                 D-45470 Muelheim/Ruhr                 #
                #                      Germany                          #
                #                                                       #
                #                  All rights reserved                  #
                #                        -***-                          #
                #########################################################


                         Program Version 6.0.1  -  RELEASE   -


 With contributions from (in alphabetic order):
[Max-Planck-Institut fuer Kohlenforschung]                               
  Daniel Aravena         : Magnetic Suceptibility                        
  Michael Atanasov       : Ab Initio Ligand Field Theory (pilot matlab implementation)
  Alexander A. Auer      : GIAO ZORA, VPT2 properties, NMR spectrum      
  Ute Becker             : All parallelization in ORCA, NUMFREQ, NUMCALC 
  Giovanni Bistoni       : ED, misc. LED, open-shell LED, HFLD           
  Martin Brehm           : Molecular dynamics                            
  Dmytro Bykov           : pre 5.0 version of the SCF Hessian            
  Marcos Casanova-Páez   : Triplet and SCS-CIS(D). UHF-(DLPNO)-IP/EA/STEOM-CCSD. UHF-CVS-IP/STEOM-CCSD   
  Vijay G. Chilkuri      : MRCI spin determinant printing, contributions to CSF-ICE 
  Pauline Colinet        : FMM embedding                                 
  Dipayan Datta          : RHF DLPNO-CCSD density                        
  Achintya Kumar Dutta   : EOM-CC, STEOM-CC                              
  Nicolas Foglia         : Exact transition moments, OPA infrastructure, MCD improvements    
  Dmitry Ganyushin       : Spin-Orbit,Spin-Spin,Magnetic field MRCI      
  Miquel Garcia-Rates    : C-PCM and meta-GGA Hessian, CCSD/C-PCM, Gaussian charge scheme 
  Tiago L. C. Gouveia    : GS-ROHF, GS-ROCIS                             
  Yang Guo               : DLPNO-NEVPT2, F12-NEVPT2, CIM, IAO-localization        
  Andreas Hansen         : Spin unrestricted coupled pair/coupled cluster methods 
  Ingolf Harden          : AUTO-CI MPn and infrastructure                
  Benjamin Helmich-Paris : MC-RPA, TRAH-(SCF,CASSCF), AVAS, COSX integrals, SCF dyn. polar. 
  Lee Huntington         : MR-EOM, pCC                                   
  Robert Izsak           : Overlap fitted RIJCOSX, COSX-SCS-MP3, EOM     
  Riya Kayal             : Wick's Theorem for AUTO-CI, AUTO-CI UHF-CCSDT 
  Emily Kempfer          : AUTO-CI, RHF CISDT and CCSDT                  
  Christian Kollmar      : KDIIS, OOCD, Brueckner-CCSD(T), CCSD density, CASPT2, CASPT2-K, improved NEVPT2 
  Axel Koslowski         : Symmetry handling                             
  Simone Kossmann        : meta-GGA functionals, TD-DFT gradient, OOMP2, (MP2 Hessian; deprecated post 5.0) 
  Lucas Lang             : DCDCAS                                        
  Marvin Lechner         : AUTO-CI (C++ implementation), FIC-MRCC        
  Spencer Leger          : CASSCF response                               
  Dagmar Lenk            : GEPOL surface, SMD, ORCA-2-JSON               
  Dimitrios Liakos       : Extrapolation schemes; Compound Job, initial MDCI parallelization 
  Dimitrios Manganas     : Further ROCIS development; embedding schemes. LFT, Crystal Embedding 
  Dimitrios Pantazis     : SARC Basis sets                               
  Anastasios Papadopoulos: AUTO-CI, single reference methods and gradients 
  Taras Petrenko         : pre 6.0 DFT Hessian and TD-DFT gradient, (ASA, deprecated), ECA, 1-Electron XAS/XES, NRVS 
  Peter Pinski           : DLPNO-MP2, DLPNO-MP2 Gradient                 
  Christoph Reimann      : Effective Core Potentials                     
  Marius Retegan         : Local ZFS, SOC                                
  Christoph Riplinger    : Optimizer, TS searches, QM/MM, DLPNO-CCSD(T), (RO)-DLPNO pert. Triples 
  Michael Roemelt        : Original ROCIS implementation                 
  Masaaki Saitow         : Open-shell DLPNO-CCSD energy and density      
  Barbara Sandhoefer     : DKH picture change effects                    
  Kantharuban Sivalingam : CASSCF convergence/infrastructure, NEVPT2 and variants, FIC-MRCI 
  Bernardo de Souza      : ESD, SOC TD-DFT                               
  Georgi L. Stoychev     : AutoAux, RI-MP2 NMR, DLPNO-MP2 response, X2C  
  Van Anh Tran           : RI-MP2 g-tensors                              
  Willem Van den Heuvel  : Paramagnetic NMR                              
  Zikuan Wang            : NOTCH, Electric field optimization            
  Frank Wennmohs         : Technical directorship and infrastructure     
  Hang Xu                : AUTO-CI-Response properties                   
                                                                         
[FACCTs GmbH]                                                            
  Markus Bursch, Miquel Garcia-Rates, Christoph Riplinger, Bernardo de Souza, Georgi L. Stoychev 
                                                                 
  APM, Basis sets (HGBS, AHGBS, def-TZVP (Ac-Lr), def2-XVPD (La-Lu)), CI-OPT, improved COSX, DLPNO-Multilevel,           
  DOCKER, DRACO, updates on ESD, GOAT, IRC, LR-CPCM, MBIS, meta-GGA TD-DFT gradient, ML-optimized integration grids, 
  MM, NACMEs, nearIR, NEB, NEB-TS, NL-DFT gradient (VV10), 2- and 3-layer-ONIOM, interface openCOSMO-RS, QMMM,   
  Crystal-QMMM, SF, symmetry and pop. for TD-DFT, r2SCAN hybrids, SOLVATOR                                   
                                                                         
[Other institutions]                                                     
  V. Asgeirsson          : NEB                                           
  Christoph Bannwarth    : sTDA-DFT, sTD-DFT, PBEh-3c, B97-3c, D3        
  Sebastian Ehlert       : rSCAN, r2SCAN, r2SCAN-3c, D4, dhf basis sets  
  Marvin Friede          : D4 for Fr, Ra, Ac-Lr                          
  Lars Goerigk           : TD-DFT with DH, B97 family of functionals     
  Stefan Grimme          : VdW corrections, initial TS optimization, DFT functionals, gCP, sTDA/sTD-DF 
  Waldemar Hujo          : DFT-NL                                        
  H. Jonsson             : NEB                                           
  Holger Kruse           : gCP                                           
  Marcel Mueller         : wB97X-3c, vDZP basis set                      
  Hagen Neugebauer       : wr2SCAN                                       
  Tobias Risthaus        : range-separated hybrid DFT                    
  Lukas Wittmann         : regularized MP2, r2SCAN double-hybrids, wr2SCAN        
                                                                         
We gratefully acknowledge several colleagues who have allowed us to      
interface, adapt or use parts of their codes:                            
  Ed Valeev, F. Pavosevic, A. Kumar             : LibInt (2-el integral package), F12 methods 
  Garnet Chan, S. Sharma, J. Yang, R. Olivares  : DMRG                   
  Ulf Ekstrom                                   : XCFun DFT Library      
  Mihaly Kallay                                 : mrcc  (arbitrary order and MRCC methods)
  Frank Weinhold                                : gennbo (NPA and NBO analysis)           
  Simon Mueller                                 : openCOSMO-RS                            
  Christopher J. Cramer and Donald G. Truhlar   : smd solvation model                     
  S Lehtola, MJT Oliveira, MAL Marques          : LibXC Library                           
  Liviu Ungur et al                             : ANISO software                          


 Your calculation uses the libint2 library for the computation of 2-el integrals
 For citations please refer to: http://libint.valeyev.net

 Your ORCA version has been built with support for libXC version: 6.2.2
 For citations please refer to: https://libxc.gitlab.io

 This ORCA versions uses:
   CBLAS   interface :  Fast vector & matrix operations
   LAPACKE interface :  Fast linear algebra routines
   SCALAPACK package :  Parallel linear algebra routines
   Shared memory     :  Shared parallel matrices
   BLAS/LAPACK       :  OpenBLAS 0.3.27  USE64BITINT DYNAMIC_ARCH NO_AFFINITY SkylakeX SINGLE_THREADED
        Core in use  :  SkylakeX
   Copyright (c) 2011-2014, The OpenBLAS Project


NOTE: MaxCore=5000 MB was set to SCF,MP2,MDCI,CIPSI,MRCI and CIS
      => If you want to overwrite this, your respective input block should be placed after the MaxCore statement
Warning: RI is on but no J-basis has been assigned. Assigning Def2/J (nothing to worry about!)
================================================================================

----- Orbital basis set information -----
Your calculation utilizes the basis: def2-TZVP
   F. Weigend and R. Ahlrichs, Phys. Chem. Chem. Phys. 7, 3297 (2005).

----- AuxJ basis set information -----
Your calculation utilizes the auxiliary basis: def2/J
   F. Weigend, Phys. Chem. Chem. Phys. 8, 1057 (2006).

================================================================================
                                        WARNINGS
                       Please study these warnings very carefully!
================================================================================

WARNING: Old DensityContainer found on disk!
         Will remove this file - 
         If you want to keep old densities, please start your calculation with a different basename. 


WARNING: Geometry Optimization
  ===> : Switching off AutoStart
         For restart on a previous wavefunction, please use MOREAD

================================================================================
                                       INPUT FILE
================================================================================
NAME = honokiol2-opt_EC_closer.inp
|  1> ! OPT B3LYP def2-TZVP TightSCF
|  2> 
|  3> %maxcore 5000
|  4> 
|  5> %pal
|  6> nprocs 25
|  7> end
|  8> 
|  9> * xyz 0 1
| 10>   O           1.13609933845528      1.43585505371661      2.41229811596846
| 11>   O          -3.70758921633107     -2.63667249703111      1.90303607904035
| 12>   C           1.09558987129161     -0.01514393860349      0.44270029449219
| 13>   C          -0.16842418070267     -0.70025033300514      0.81671915196118
| 14>   C          -2.46265989367099     -1.34739698264962      0.24741757752774
| 15>   C          -1.26016975109977     -0.70975271379213     -0.05304288307313
| 16>   C           2.95136148846482      0.21227038281895     -1.14161726280834
| 17>   C           1.74654395805394     -0.36168555859273     -0.74480772100070
| 18>   C           1.67624355013036      0.97886401553798      1.25404388531652
| 19>   C          -0.29959181390497     -1.38503491866716      2.02850667020061
| 20>   C          -2.56048835691238     -2.01715444290674      1.47616327191451
| 21>   C          -3.63763460277280     -1.23780245299303     -0.70882725734445
| 22>   C           3.63062520028646     -0.21402783105841     -2.42997942841109
| 23>   C           3.51204407909405      1.17831466148337     -0.30749122346179
| 24>   C          -1.47537047261338     -2.04330913397768      2.34795500430813
| 25>   C           2.88407131010070      1.55930899804585      0.86808607018737
| 26>   C          -4.32543295573920     -2.53543644902161     -1.03633687252194
| 27>   C           2.83625058152013      0.11531766572483     -3.66370395479025
| 28>   C          -5.62926106060258     -2.77031608955865     -0.91212560556935
| 29>   C           2.43903366374128     -0.76387693998928     -4.57624361308758
| 30>   H          -1.17952765885056     -0.17843782360228     -0.99468952140777
| 31>   H           1.29694336463413     -1.12790198541057     -1.36673232553736
| 32>   H           0.53251258160038     -1.41476389534182      2.72055341006217
| 33>   H          -4.36350177131485     -0.51453378907130     -0.31641417046432
| 34>   H          -3.26472925225879     -0.81191232665278     -1.64523349780442
| 35>   H           3.83522368641384     -1.28915810376158     -2.41260354462090
| 36>   H           4.60221337236695      0.28785711272626     -2.48758999193047
| 37>   H           4.45209963025123      1.64442652995224     -0.58144041768544
| 38>   H          -1.57438942810027     -2.58674906922762      3.27924746573246
| 39>   H           3.30906203560288      2.32411839206008      1.50543667080278
| 40>   H          -3.68076739577532     -3.32455788295132     -1.41645816597997
| 41>   H           2.57583815055247      1.16385371329539     -3.78779908270187
| 42>   H           0.20619690259069      1.18560853054890      2.53873548436766
| 43>   H          -4.30540062118373     -2.80267226691406      1.15866847585149
| 44>   H          -6.06258014275909     -3.72267199014379     -1.19051584219702
| 45>   H          -6.31122873465288     -2.01052285550423     -0.54421208906138
| 46>   H           1.87001882285243     -0.46174059356323     -5.44686780634815
| 47>   H           2.67311305197934     -1.81959852215023     -4.48747438289147
| 48>   H          -5.56015514362404      1.41626472734791      3.35304539425135
| 49>   H          -5.06491023315839      0.05912493546955      5.29179592656122
| 50>   C          -4.86190450854266      0.60152813681239      3.15891038288770
| 51>   O          -3.11671881533145      0.29819445460704      4.67702898062987
| 52>   C          -2.65550545196872      0.99674332252654      3.61814364634130
| 53>   C          -4.45178235912318     -0.16802620452467      4.42161270038298
| 54>   O          -3.62650001618590      1.16941819849836      2.69683946553620
| 55>   O          -1.53998847881918      1.40444092728214      3.51148230106321
| 56>   H          -5.25272144165253     -0.05020654914305      2.37931861362558
| 57>   H          -4.42517754053159     -1.24544913244508      4.25971836788611
| 58> *
| 59> 
| 60>                          ****END OF INPUT****
================================================================================

                       *****************************
                       * Geometry Optimization Run *
                       *****************************

Geometry optimization settings:
Update method            Update   .... BFGS
Choice of coordinates    CoordSys .... (2022) Redundant Internals
Initial Hessian          InHess   .... Almloef's Model
Max. no of cycles        MaxIter  .... 144

Convergence Tolerances:
Energy Change            TolE     ....  5.0000e-06 Eh
Max. Gradient            TolMAXG  ....  3.0000e-04 Eh/bohr
RMS Gradient             TolRMSG  ....  1.0000e-04 Eh/bohr
Max. Displacement        TolMAXD  ....  4.0000e-03 bohr
RMS Displacement         TolRMSD  ....  2.0000e-03 bohr
Strict Convergence                .... False

------------------------------------------------------------------------------
                        ORCA OPTIMIZATION COORDINATE SETUP
------------------------------------------------------------------------------

The optimization will be done in redundant internal coordinates (2022)
Making redundant internal coordinates   ...  (2022 redundants) done
Evaluating the initial hessian          ...  (Almloef) done
Evaluating the coordinates              ...  done
Calculating the B-matrix                .... done
Calculating the G-matrix                .... done
Diagonalizing the G-matrix              .... done
Small eigenvalue found = 1.771e-03
Small eigenvalue found = 2.886e-03
Small eigenvalue found = 4.536e-03
Small eigenvalue found = 9.047e-03
Small eigenvalue found = 1.174e-02
Small eigenvalue found = 1.346e-02
Small eigenvalue found = 1.840e-02
Small eigenvalue found = 2.401e-02
The first mode is                       ....   98
The number of degrees of freedom        ....  138

    -----------------------------------------------------------------
                    Redundant Internal Coordinates


    -----------------------------------------------------------------
         Definition                    Initial Value    Approx d2E/dq
    -----------------------------------------------------------------
      1. B(C   3,C   2)                  1.4856         0.439767   
      2. B(C   5,C   4)                  1.3939         0.615996   
      3. B(C   5,C   3)                  1.3959         0.611442   
      4. B(C   7,C   6)                  1.3923         0.619565   
      5. B(C   7,C   2)                  1.3979         0.607018   
      6. B(C   8,C   2)                  1.4084         0.584037   
      7. B(C   8,O   0)                  1.3573         0.631122   
      8. B(C   9,C   3)                  1.3981         0.606574   
      9. B(C  10,C   4)                  1.4028         0.596008   
     10. B(C  10,O   1)                  1.3718         0.598268   
     11. B(C  11,C   4)                  1.5189         0.389159   
     12. B(C  12,C   6)                  1.5176         0.391035   
     13. B(C  13,C   6)                  1.3940         0.615572   
     14. B(C  14,C  10)                  1.3922         0.619796   
     15. B(C  14,C   9)                  1.3849         0.636714   
     16. B(C  15,C  13)                  1.3862         0.633632   
     17. B(C  15,C   8)                  1.3945         0.614474   
     18. B(C  16,C  11)                  1.5047         0.409930   
     19. B(C  17,C  12)                  1.5039         0.411237   
     20. B(C  18,C  16)                  1.3306         0.777081   
     21. B(C  19,C  17)                  1.3280         0.784712   
     22. B(H  20,C   5)                  1.0842         0.367850   
     23. B(H  21,C   7)                  1.0844         0.367526   
     24. B(H  22,C   9)                  1.0827         0.369906   
     25. B(H  23,C  11)                  1.0973         0.350617   
     26. B(H  24,C  11)                  1.0942         0.354572   
     27. B(H  25,C  12)                  1.0946         0.354114   
     28. B(H  26,C  12)                  1.0951         0.353448   
     29. B(H  27,C  13)                  1.0844         0.367529   
     30. B(H  28,C  14)                  1.0828         0.369763   
     31. B(H  29,C  15)                  1.0825         0.370185   
     32. B(H  30,C  16)                  1.0876         0.363335   
     33. B(H  31,C  17)                  1.0875         0.363431   
     34. B(H  32,O   0)                  0.9713         0.498904   
     35. B(H  33,O   1)                  0.9690         0.502992   
     36. B(H  34,C  18)                  1.0827         0.369882   
     37. B(H  35,C  18)                  1.0852         0.366465   
     38. B(H  36,C  19)                  1.0831         0.369379   
     39. B(H  37,C  19)                  1.0850         0.366778   
     40. B(C  40,H  38)                  1.0904         0.359531   
     41. B(C  42,O  41)                  1.3498         0.648682   
     42. B(C  43,O  41)                  1.4370         0.470843   
     43. B(C  43,C  40)                  1.5345         0.367388   
     44. B(C  43,H  39)                  1.0885         0.362145   
     45. B(O  44,C  42)                  1.3496         0.649104   
     46. B(O  44,C  40)                  1.4360         0.472508   
     47. B(O  45,H  32)                  2.0108         0.010952   
     48. B(O  45,C  42)                  1.1925         1.156193   
     49. B(H  46,C  40)                  1.0887         0.361829   
     50. B(H  47,O   1)                  2.8292         0.000542   
     51. B(H  47,C  43)                  1.0898         0.360308   
     52. A(C   8,O   0,H  32)          113.9140         0.368622   
     53. A(C  10,O   1,H  33)          110.7441         0.365769   
     54. A(C   3,C   2,C   8)          122.0895         0.403968   
     55. A(C   3,C   2,C   7)          119.7207         0.406731   
     56. A(C   7,C   2,C   8)          118.1886         0.427804   
     57. A(C   5,C   3,C   9)          117.6042         0.431282   
     58. A(C   2,C   3,C   9)          121.5964         0.406678   
     59. A(C   2,C   3,C   5)          120.7792         0.407254   
     60. A(C  10,C   4,C  11)          122.1370         0.396782   
     61. A(C   5,C   4,C  11)          119.9109         0.399088   
     62. A(C   5,C   4,C  10)          117.8642         0.430496   
     63. A(C   3,C   5,H  20)          118.6629         0.353351   
     64. A(C   3,C   5,C   4)          122.9248         0.432478   
     65. A(C   4,C   5,H  20)          118.3962         0.353795   
     66. A(C  12,C   6,C  13)          121.5079         0.399377   
     67. A(C   7,C   6,C  12)          120.8965         0.399832   
     68. A(C   7,C   6,C  13)          117.5926         0.433452   
     69. A(C   2,C   7,H  21)          117.9883         0.352864   
     70. A(C   2,C   7,C   6)          122.8810         0.432363   
     71. A(C   6,C   7,H  21)          119.1164         0.354089   
     72. A(O   0,C   8,C   2)          124.4151         0.427991   
     73. A(C   2,C   8,C  15)          119.4339         0.428741   
     74. A(O   0,C   8,C  15)          116.1502         0.431911   
     75. A(C   3,C   9,C  14)          120.8253         0.434434   
     76. A(C  14,C   9,H  22)          119.4739         0.356122   
     77. A(C   3,C   9,H  22)          119.6944         0.353206   
     78. A(O   1,C  10,C   4)          123.1259         0.425455   
     79. A(O   1,C  10,C  14)          116.6421         0.428449   
     80. A(C   4,C  10,C  14)          120.2056         0.430972   
     81. A(C   4,C  11,C  16)          115.3664         0.371783   
     82. A(H  23,C  11,H  24)          105.9585         0.288923   
     83. A(C  16,C  11,H  24)          107.7682         0.328478   
     84. A(C   4,C  11,H  24)          107.6515         0.325676   
     85. A(C  16,C  11,H  23)          110.1147         0.327870   
     86. A(C   4,C  11,H  23)          109.5209         0.325075   
     87. A(C   6,C  12,C  17)          113.4855         0.372295   
     88. A(H  25,C  12,H  26)          106.5687         0.289228   
     89. A(C   6,C  12,H  26)          108.2429         0.325763   
     90. A(C  17,C  12,H  25)          109.0791         0.328580   
     91. A(C   6,C  12,H  25)          110.2497         0.325864   
     92. A(C  17,C  12,H  26)          108.9735         0.328478   
     93. A(C   6,C  13,C  15)          121.0444         0.435207   
     94. A(C  15,C  13,H  27)          119.2623         0.355440   
     95. A(C   6,C  13,H  27)          119.6927         0.353702   
     96. A(C  10,C  14,H  28)          118.4726         0.354476   
     97. A(C   9,C  14,H  28)          120.9711         0.356099   
     98. A(C   9,C  14,C  10)          120.5561         0.436124   
     99. A(C  13,C  15,H  29)          121.0419         0.355874   
    100. A(C   8,C  15,H  29)          118.1101         0.354026   
    101. A(C   8,C  15,C  13)          120.8429         0.435067   
    102. A(C  11,C  16,C  18)          125.4362         0.419698   
    103. A(C  18,C  16,H  30)          119.0367         0.367312   
    104. A(C  11,C  16,H  30)          115.5218         0.329804   
    105. A(C  12,C  17,C  19)          125.2221         0.420669   
    106. A(C  19,C  17,H  31)          119.2291         0.367944   
    107. A(C  12,C  17,H  31)          115.5475         0.329992   
    108. A(H  34,C  18,H  35)          116.8401         0.292874   
    109. A(C  16,C  18,H  35)          121.5885         0.367852   
    110. A(C  16,C  18,H  34)          121.5622         0.368439   
    111. A(H  36,C  19,H  37)          116.7787         0.292851   
    112. A(C  17,C  19,H  37)          121.5635         0.368524   
    113. A(C  17,C  19,H  36)          121.6572         0.368971   
    114. A(O   0,H  32,O  45)          150.0398         0.185280   
    115. A(H  38,C  40,C  43)          113.5368         0.323347   
    116. A(O  44,C  40,H  46)          108.3696         0.335395   
    117. A(H  38,C  40,H  46)          110.1758         0.290986   
    118. A(C  43,C  40,H  46)          112.6411         0.323685   
    119. A(C  43,C  40,O  44)          103.4833         0.374872   
    120. A(H  38,C  40,O  44)          108.2215         0.335040   
    121. A(C  42,O  41,C  43)          110.2381         0.411196   
    122. A(O  44,C  42,O  45)          124.6271         0.483903   
    123. A(O  41,C  42,O  45)          124.5241         0.483845   
    124. A(O  41,C  42,O  44)          110.8487         0.435481   
    125. A(O  41,C  43,H  47)          108.9331         0.334964   
    126. A(C  40,C  43,H  47)          112.3376         0.323462   
    127. A(H  39,C  43,H  47)          109.8051         0.291125   
    128. A(C  40,C  43,O  41)          103.4062         0.374643   
    129. A(H  39,C  43,O  41)          108.2722         0.335247   
    130. A(H  39,C  43,C  40)          113.7431         0.323732   
    131. A(C  40,O  44,C  42)          110.4074         0.411501   
    132. A(H  32,O  45,C  42)          144.9282         0.224112   
    133. D(C   9,C   3,C   2,C   7)    122.6284         0.013196   
    134. D(C   5,C   3,C   2,C   7)    -55.6963         0.013196   
    135. D(C   9,C   3,C   2,C   8)    -56.9756         0.013196   
    136. D(C   5,C   3,C   2,C   8)    124.6997         0.013196   
    137. D(H  20,C   5,C   4,C  11)     -2.5408         0.026237   
    138. D(H  20,C   5,C   3,C   2)     -2.0196         0.025828   
    139. D(C   3,C   5,C   4,C  11)    175.9781         0.026237   
    140. D(C   3,C   5,C   4,C  10)     -0.6875         0.026237   
    141. D(H  20,C   5,C   3,C   9)    179.5906         0.025828   
    142. D(H  20,C   5,C   4,C  10)   -179.2065         0.026237   
    143. D(C   4,C   5,C   3,C   2)    179.4652         0.025828   
    144. D(C   4,C   5,C   3,C   9)      1.0755         0.025828   
    145. D(C   6,C   7,C   2,C   8)      1.3531         0.025434   
    146. D(H  21,C   7,C   2,C   3)      0.3410         0.025434   
    147. D(C   6,C   7,C   2,C   3)   -178.2663         0.025434   
    148. D(H  21,C   7,C   6,C  13)   -178.9741         0.026560   
    149. D(H  21,C   7,C   6,C  12)      0.4141         0.026560   
    150. D(C   2,C   7,C   6,C  12)    179.0064         0.026560   
    151. D(H  21,C   7,C   2,C   8)    179.9604         0.025434   
    152. D(C   2,C   7,C   6,C  13)     -0.3818         0.026560   
    153. D(C  15,C   8,O   0,H  32)    165.3374         0.029301   
    154. D(C  15,C   8,C   2,C   7)     -1.4117         0.023450   
    155. D(O   0,C   8,C   2,C   7)    178.2402         0.023450   
    156. D(C  15,C   8,C   2,C   3)    178.1981         0.023450   
    157. D(O   0,C   8,C   2,C   3)     -2.1500         0.023450   
    158. D(C   2,C   8,O   0,H  32)    -14.3249         0.029301   
    159. D(H  22,C   9,C   3,C   5)    178.8943         0.025395   
    160. D(C  14,C   9,C   3,C   5)     -0.1751         0.025395   
    161. D(H  22,C   9,C   3,C   2)      0.5185         0.025395   
    162. D(C  14,C   9,C   3,C   2)   -178.5509         0.025395   
    163. D(C   4,C  10,O   1,H  33)     18.7580         0.028829   
    164. D(C  14,C  10,C   4,C  11)   -177.1918         0.024471   
    165. D(C  14,C  10,C   4,C   5)     -0.6051         0.024471   
    166. D(O   1,C  10,C   4,C  11)      0.8759         0.024471   
    167. D(O   1,C  10,C   4,C   5)    177.4626         0.024471   
    168. D(C  14,C  10,O   1,H  33)   -163.1102         0.028829   
    169. D(H  24,C  11,C   4,C   5)     12.0664         0.011270   
    170. D(H  23,C  11,C   4,C  10)     73.8177         0.011270   
    171. D(H  23,C  11,C   4,C   5)   -102.7010         0.011270   
    172. D(C  16,C  11,C   4,C  10)    -51.0648         0.011270   
    173. D(C  16,C  11,C   4,C   5)    132.4166         0.011270   
    174. D(H  26,C  12,C   6,C   7)   -174.3090         0.011373   
    175. D(H  25,C  12,C   6,C  13)    121.2634         0.011373   
    176. D(H  25,C  12,C   6,C   7)    -58.1007         0.011373   
    177. D(C  17,C  12,C   6,C  13)   -116.0412         0.011373   
    178. D(C  17,C  12,C   6,C   7)     64.5947         0.011373   
    179. D(H  27,C  13,C   6,C  12)      0.3475         0.026198   
    180. D(H  27,C  13,C   6,C   7)    179.7318         0.026198   
    181. D(C  15,C  13,C   6,C  12)   -179.9190         0.026198   
    182. D(C  15,C  13,C   6,C   7)     -0.5348         0.026198   
    183. D(H  28,C  14,C  10,C   4)   -178.6772         0.026581   
    184. D(H  28,C  14,C  10,O   1)      3.1332         0.026581   
    185. D(C   9,C  14,C  10,C   4)      1.4838         0.026581   
    186. D(C   9,C  14,C  10,O   1)   -176.7058         0.026581   
    187. D(H  28,C  14,C   9,H  22)      0.0091         0.028148   
    188. D(H  28,C  14,C   9,C   3)    179.0805         0.028148   
    189. D(C  10,C  14,C   9,H  22)    179.8440         0.028148   
    190. D(C  10,C  14,C   9,C   3)     -1.0846         0.028148   
    191. D(C   8,C  15,C  13,C   6)      0.4445         0.027858   
    192. D(H  29,C  15,C   8,C   2)    179.7436         0.026099   
    193. D(H  29,C  15,C   8,O   0)      0.0635         0.026099   
    194. D(C  13,C  15,C   8,C   2)      0.5565         0.026099   
    195. D(C  13,C  15,C   8,O   0)   -179.1236         0.026099   
    196. D(H  29,C  15,C  13,H  27)      1.0160         0.027858   
    197. D(H  29,C  15,C  13,C   6)   -178.7186         0.027858   
    198. D(C   8,C  15,C  13,H  27)   -179.8209         0.027858   
    199. D(H  30,C  16,C  11,H  23)   -178.9077         0.012446   
    200. D(H  30,C  16,C  11,C   4)    -54.3339         0.012446   
    201. D(C  18,C  16,C  11,H  24)   -113.1946         0.012446   
    202. D(C  18,C  16,C  11,H  23)      1.9453         0.012446   
    203. D(C  18,C  16,C  11,C   4)    126.5190         0.012446   
    204. D(H  31,C  17,C  12,H  25)   -179.8538         0.012523   
    205. D(H  31,C  17,C  12,C   6)     56.8071         0.012523   
    206. D(C  19,C  17,C  12,H  26)    116.5366         0.012523   
    207. D(C  19,C  17,C  12,H  25)      0.5609         0.012523   
    208. D(C  19,C  17,C  12,C   6)   -122.7782         0.012523   
    209. D(H  35,C  18,C  16,H  30)   -179.5489         0.043370   
    210. D(H  35,C  18,C  16,C  11)     -0.4292         0.043370   
    211. D(H  34,C  18,C  16,H  30)     -0.6874         0.043370   
    212. D(H  34,C  18,C  16,C  11)    178.4322         0.043370   
    213. D(H  37,C  19,C  17,H  31)   -179.6744         0.044315   
    214. D(H  37,C  19,C  17,C  12)     -0.1031         0.044315   
    215. D(H  36,C  19,C  17,H  31)      0.6074         0.044315   
    216. D(H  36,C  19,C  17,C  12)   -179.8213         0.044315   
    217. D(O  45,H  32,O   0,C   8)   -166.4796         0.273861   
    218. D(O  45,C  42,O  41,C  43)   -173.5166         0.031088   
    219. D(O  44,C  42,O  41,C  43)      6.4020         0.031088   
    220. D(H  47,C  43,O  41,C  42)    108.0176         0.017476   
    221. D(H  39,C  43,O  41,C  42)   -132.6101         0.017476   
    222. D(O  41,C  43,C  40,H  46)    129.0625         0.010799   
    223. D(O  41,C  43,C  40,O  44)     12.2452         0.010799   
    224. D(O  41,C  43,C  40,H  38)   -104.8307         0.010799   
    225. D(H  39,C  43,C  40,H  46)   -113.7465         0.010799   
    226. D(C  40,C  43,O  41,C  42)    -11.6399         0.017476   
    227. D(H  39,C  43,C  40,O  44)    129.4363         0.010799   
    228. D(H  39,C  43,C  40,H  38)     12.3604         0.010799   
    229. D(C  40,O  44,C  42,O  45)   -177.7250         0.031132   
    230. D(C  40,O  44,C  42,O  41)      2.3565         0.031132   
    231. D(C  42,O  44,C  40,H  46)   -129.0704         0.017602   
    232. D(C  42,O  44,C  40,C  43)     -9.2857         0.017602   
    233. D(C  42,O  44,C  40,H  38)    111.4625         0.017602   
    234. D(H  32,O  45,C  42,O  44)    -70.6596         0.114837   
    235. D(H  32,O  45,C  42,O  41)    109.2479         0.114837   
    236. D(C  42,O  45,H  32,O   0)   -176.1668         0.001555   
    -----------------------------------------------------------------

Number of atoms                         .... 48
Number of degrees of freedom            .... 236


         *************************************************************
         *                GEOMETRY OPTIMIZATION CYCLE   1            *
         *************************************************************
---------------------------------
CARTESIAN COORDINATES (ANGSTROEM)
---------------------------------
  O      1.136099    1.435855    2.412298
  O     -3.707589   -2.636672    1.903036
  C      1.095590   -0.015144    0.442700
  C     -0.168424   -0.700250    0.816719
  C     -2.462660   -1.347397    0.247418
  C     -1.260170   -0.709753   -0.053043
  C      2.951361    0.212270   -1.141617
  C      1.746544   -0.361686   -0.744808
  C      1.676244    0.978864    1.254044
  C     -0.299592   -1.385035    2.028507
  C     -2.560488   -2.017154    1.476163
  C     -3.637635   -1.237802   -0.708827
  C      3.630625   -0.214028   -2.429979
  C      3.512044    1.178315   -0.307491
  C     -1.475370   -2.043309    2.347955
  C      2.884071    1.559309    0.868086
  C     -4.325433   -2.535436   -1.036337
  C      2.836251    0.115318   -3.663704
  C     -5.629261   -2.770316   -0.912126
  C      2.439034   -0.763877   -4.576244
  H     -1.179528   -0.178438   -0.994690
  H      1.296943   -1.127902   -1.366732
  H      0.532513   -1.414764    2.720553
  H     -4.363502   -0.514534   -0.316414
  H     -3.264729   -0.811912   -1.645233
  H      3.835224   -1.289158   -2.412604
  H      4.602213    0.287857   -2.487590
  H      4.452100    1.644427   -0.581440
  H     -1.574389   -2.586749    3.279247
  H      3.309062    2.324118    1.505437
  H     -3.680767   -3.324558   -1.416458
  H      2.575838    1.163854   -3.787799
  H      0.206197    1.185609    2.538735
  H     -4.305401   -2.802672    1.158668
  H     -6.062580   -3.722672   -1.190516
  H     -6.311229   -2.010523   -0.544212
  H      1.870019   -0.461741   -5.446868
  H      2.673113   -1.819599   -4.487474
  H     -5.560155    1.416265    3.353045
  H     -5.064910    0.059125    5.291796
  C     -4.861905    0.601528    3.158910
  O     -3.116719    0.298194    4.677029
  C     -2.655505    0.996743    3.618144
  C     -4.451782   -0.168026    4.421613
  O     -3.626500    1.169418    2.696839
  O     -1.539988    1.404441    3.511482
  H     -5.252721   -0.050207    2.379319
  H     -4.425178   -1.245449    4.259718

----------------------------
CARTESIAN COORDINATES (A.U.)
----------------------------
  NO LB      ZA    FRAG     MASS         X           Y           Z
   0 O     8.0000    0    15.999    2.146917    2.713373    4.558583
   1 O     8.0000    0    15.999   -7.006328   -4.982589    3.596217
   2 C     6.0000    0    12.011    2.070365   -0.028618    0.836582
   3 C     6.0000    0    12.011   -0.318276   -1.323281    1.543376
   4 C     6.0000    0    12.011   -4.653753   -2.546211    0.467551
   5 C     6.0000    0    12.011   -2.381376   -1.341238   -0.100237
   6 C     6.0000    0    12.011    5.577265    0.401133   -2.157344
   7 C     6.0000    0    12.011    3.300490   -0.683487   -1.407483
   8 C     6.0000    0    12.011    3.167641    1.849785    2.369800
   9 C     6.0000    0    12.011   -0.566146   -2.617337    3.833322
  10 C     6.0000    0    12.011   -4.838622   -3.811869    2.789544
  11 C     6.0000    0    12.011   -6.874133   -2.339108   -1.339489
  12 C     6.0000    0    12.011    6.860887   -0.404454   -4.591996
  13 C     6.0000    0    12.011    6.636801    2.226692   -0.581074
  14 C     6.0000    0    12.011   -2.788046   -3.861295    4.436992
  15 C     6.0000    0    12.011    5.450105    2.946667    1.640445
  16 C     6.0000    0    12.011   -8.173884   -4.791281   -1.958393
  17 C     6.0000    0    12.011    5.359737    0.217919   -6.923397
  18 C     6.0000    0    12.011  -10.637762   -5.235139   -1.723668
  19 C     6.0000    0    12.011    4.609106   -1.443518   -8.647847
  20 H     1.0000    0     1.008   -2.228984   -0.337199   -1.879691
  21 H     1.0000    0     1.008    2.450868   -2.131426   -2.582750
  22 H     1.0000    0     1.008    1.006303   -2.673516    5.141101
  23 H     1.0000    0     1.008   -8.245823   -0.972328   -0.597936
  24 H     1.0000    0     1.008   -6.169444   -1.534292   -3.109041
  25 H     1.0000    0     1.008    7.247522   -2.436156   -4.559160
  26 H     1.0000    0     1.008    8.696923    0.543971   -4.700864
  27 H     1.0000    0     1.008    8.413249    3.107516   -1.098763
  28 H     1.0000    0     1.008   -2.975165   -4.888247    6.196880
  29 H     1.0000    0     1.008    6.253221    4.391947    2.844863
  30 H     1.0000    0     1.008   -6.955642   -6.282504   -2.676718
  31 H     1.0000    0     1.008    4.867629    2.199365   -7.157903
  32 H     1.0000    0     1.008    0.389656    2.240475    4.797515
  33 H     1.0000    0     1.008   -8.136028   -5.296283    2.189566
  34 H     1.0000    0     1.008  -11.456616   -7.034831   -2.249749
  35 H     1.0000    0     1.008  -11.926494   -3.799338   -1.028412
  36 H     1.0000    0     1.008    3.533823   -0.872563  -10.293088
  37 H     1.0000    0     1.008    5.051452   -3.438543   -8.480098
  38 H     1.0000    0     1.008  -10.507170    2.676352    6.336338
  39 H     1.0000    0     1.008   -9.571293    0.111730   10.000045
  40 C     6.0000    0    12.011   -9.187668    1.136723    5.969476
  41 O     8.0000    0    15.999   -5.889745    0.563506    8.838304
  42 C     6.0000    0    12.011   -5.018178    1.883572    6.837301
  43 C     6.0000    0    12.011   -8.412649   -0.317524    8.355637
  44 O     8.0000    0    15.999   -6.853092    2.209880    5.096288
  45 O     8.0000    0    15.999   -2.910156    2.654009    6.635740
  46 H     1.0000    0     1.008   -9.926205   -0.094877    4.496261
  47 H     1.0000    0     1.008   -8.362374   -2.353558    8.049701

--------------------------------
INTERNAL COORDINATES (ANGSTROEM)
--------------------------------
 O      0   0   0     0.000000000000     0.00000000     0.00000000
 O      1   0   0     6.348712254436     0.00000000     0.00000000
 C      1   2   0     2.446702816242    62.76599011     0.00000000
 C      3   1   2     1.485594965336    94.87076778     0.32537841
 C      2   1   3     2.439908398476    47.63812597   324.18679602
 C      5   2   1     1.393861271781   145.91253297    24.67389822
 C      3   1   2     2.450646382297   116.92694174   180.90362601
 C      7   3   1     1.392288948723    28.62176028   181.76447272
 C      1   2   3     1.357258059915    91.09937171   358.97745518
 C      4   3   1     1.398057175555   121.59639240   302.03715827
 C      2   1   3     1.371810261854    25.48483770   356.66900969
 C      5   2   1     1.518874817811    94.04962924   209.42187377
 C      7   3   1     1.517565954781   149.51131983   180.08390322
 C      7   3   1     1.394049054119    88.97137783     1.42600971
 C     10   4   3     1.384856539495   120.82525827   181.44908678
 C     14   7   3     1.386177642452   121.04443340   359.28231145
 C     12   5   2     1.504720276339   115.36637044   309.34864636
 C     13   7   3     1.503853615942   113.48551350    65.53277288
 C     17  12   5     1.330625646607   125.43617638   126.51899768
 C     18  13   7     1.327965761024   125.22210010   237.22175485
 H      6   5   2     1.084203417753   118.39619114   182.92509587
 H      8   7   3     1.084443875937   119.11639909   181.40770432
 H     10   4   3     1.082686578483   119.69440196     0.51850900
 H     12   5   2     1.097264205801   109.52093651    74.23110693
 H     12   5   2     1.094210878820   107.65154666   188.99854011
 H     13   7   3     1.094562727826   110.24966761   302.83735121
 H     13   7   3     1.095075819272   108.24288472   186.62907245
 H     14   7   3     1.084441272824   119.69269573   179.54882545
 H     15  10   4     1.082791469063   120.97109718   179.08051618
 H     16  14   7     1.082481553672   121.04186848   181.28137955
 H     17  12   5     1.087565409266   115.52175272   305.66608904
 H     18  13   7     1.087493484132   115.54750592    56.80705394
 H      1   2   3     0.971250879388    27.71206153   145.62736420
 H      2   1   3     0.969029167802   129.95434582   309.80118647
 H     19  17  12     1.082704166515   121.56221253   178.43224149
 H     19  17  12     1.085230861427   121.58850087   359.57075638
 H     20  18  13     1.083074672806   121.65722527   180.17865652
 H     20  18  13     1.084998246666   121.56353707   359.89688198
 H     24  12   5     4.315657041697   141.48185449   339.54836326
 H     39  24  12     2.417819174912   111.95465655   332.26617531
 C     39  24  12     1.090430219678    48.45466283   351.41370807
 O     40  39  24     2.056828245937    83.63293275    62.66181881
 C     42  40  39     1.349787553131   128.19017319     1.06157334
 C     40  39  24     1.088458670525    65.88706902    23.45937641
 O     43  42  40     1.349610480880   110.84871771   338.33191579
 O     43  42  40     1.192464715153   124.52407952   158.41330707
 H     41  39  24     1.088696148052   110.17584160   321.31901833
 H     44  40  39     1.089842996434   109.80514361   227.58574696

---------------------------
INTERNAL COORDINATES (A.U.)
---------------------------
 O      0   0   0     0.000000000000     0.00000000     0.00000000
 O      1   0   0    11.997327463953     0.00000000     0.00000000
 C      1   2   0     4.623598253792    62.76599011     0.00000000
 C      3   1   2     2.807367630417    94.87076778     0.32537841
 C      2   1   3     4.610758664974    47.63812597   324.18679602
 C      5   2   1     2.634016072346   145.91253297    24.67389822
 C      3   1   2     4.631050513626   116.92694174   180.90362601
 C      7   3   1     2.631044812372    28.62176028   181.76447272
 C      1   2   3     2.564846026297    91.09937171   358.97745518
 C      4   3   1     2.641945181363   121.59639240   302.03715827
 C      2   1   3     2.592345702607    25.48483770   356.66900969
 C      5   2   1     2.870257437372    94.04962924   209.42187377
 C      7   3   1     2.867784044698   149.51131983   180.08390322
 C      7   3   1     2.634370929537    88.97137783     1.42600971
 C     10   4   3     2.616999594415   120.82525827   181.44908678
 C     14   7   3     2.619496117199   121.04443340   359.28231145
 C     12   5   2     2.843509230439   115.36637044   309.34864636
 C     13   7   3     2.841871479637   113.48551350    65.53277288
 C     17  12   5     2.514518058859   125.43617638   126.51899768
 C     18  13   7     2.509491603560   125.22210010   237.22175485
 H      6   5   2     2.048847533014   118.39619114   182.92509587
 H      8   7   3     2.049301933129   119.11639909   181.40770432
 H     10   4   3     2.045981122204   119.69440196     0.51850900
 H     12   5   2     2.073528845519   109.52093651    74.23110693
 H     12   5   2     2.067758893727   107.65154666   188.99854011
 H     13   7   3     2.068423791989   110.24966761   302.83735121
 H     13   7   3     2.069393394303   108.24288472   186.62907245
 H     14   7   3     2.049297013959   119.69269573   179.54882545
 H     15  10   4     2.046179336676   120.97109718   179.08051618
 H     16  14   7     2.045593681462   121.04186848   181.28137955
 H     17  12   5     2.055200776238   115.52175272   305.66608904
 H     18  13   7     2.055064857433   115.54750592    56.80705394
 H      1   2   3     1.835398169374    27.71206153   145.62736420
 H      2   1   3     1.831199742927   129.95434582   309.80118647
 H     19  17  12     2.046014358770   121.56221253   178.43224149
 H     19  17  12     2.050789120177   121.58850087   359.57075638
 H     20  18  13     2.046714514190   121.65722527   180.17865652
 H     20  18  13     2.050349541983   121.56353707   359.89688198
 H     24  12   5     8.155409896736   141.48185449   339.54836326
 H     39  24  12     4.569016081928   111.95465655   332.26617531
 C     39  24  12     2.060614483342    48.45466283   351.41370807
 O     40  39  24     3.886842089335    83.63293275    62.66181881
 C     42  40  39     2.550728814393   128.19017319     1.06157334
 C     40  39  24     2.056888795385    65.88706902    23.45937641
 O     43  42  40     2.550394196332   110.84871771   338.33191579
 O     43  42  40     2.253431736003   124.52407952   158.41330707
 H     41  39  24     2.057337562874   110.17584160   321.31901833
 H     44  40  39     2.059504792232   109.80514361   227.58574696

---------------------
BASIS SET INFORMATION
---------------------
There are 3 groups of distinct atoms

 Group   1 Type O   : 11s6p2d1f contracted to 5s3p2d1f pattern {62111/411/11/1}
 Group   2 Type C   : 11s6p2d1f contracted to 5s3p2d1f pattern {62111/411/11/1}
 Group   3 Type H   : 5s1p contracted to 3s1p pattern {311/1}

Atom   0O    basis set group =>   1
Atom   1O    basis set group =>   1
Atom   2C    basis set group =>   2
Atom   3C    basis set group =>   2
Atom   4C    basis set group =>   2
Atom   5C    basis set group =>   2
Atom   6C    basis set group =>   2
Atom   7C    basis set group =>   2
Atom   8C    basis set group =>   2
Atom   9C    basis set group =>   2
Atom  10C    basis set group =>   2
Atom  11C    basis set group =>   2
Atom  12C    basis set group =>   2
Atom  13C    basis set group =>   2
Atom  14C    basis set group =>   2
Atom  15C    basis set group =>   2
Atom  16C    basis set group =>   2
Atom  17C    basis set group =>   2
Atom  18C    basis set group =>   2
Atom  19C    basis set group =>   2
Atom  20H    basis set group =>   3
Atom  21H    basis set group =>   3
Atom  22H    basis set group =>   3
Atom  23H    basis set group =>   3
Atom  24H    basis set group =>   3
Atom  25H    basis set group =>   3
Atom  26H    basis set group =>   3
Atom  27H    basis set group =>   3
Atom  28H    basis set group =>   3
Atom  29H    basis set group =>   3
Atom  30H    basis set group =>   3
Atom  31H    basis set group =>   3
Atom  32H    basis set group =>   3
Atom  33H    basis set group =>   3
Atom  34H    basis set group =>   3
Atom  35H    basis set group =>   3
Atom  36H    basis set group =>   3
Atom  37H    basis set group =>   3
Atom  38H    basis set group =>   3
Atom  39H    basis set group =>   3
Atom  40C    basis set group =>   2
Atom  41O    basis set group =>   1
Atom  42C    basis set group =>   2
Atom  43C    basis set group =>   2
Atom  44O    basis set group =>   1
Atom  45O    basis set group =>   1
Atom  46H    basis set group =>   3
Atom  47H    basis set group =>   3
---------------------------------
AUXILIARY/J BASIS SET INFORMATION
---------------------------------
There are 3 groups of distinct atoms

 Group   1 Type O   : 12s5p4d2f1g contracted to 6s4p3d1f1g pattern {711111/2111/211/2/1}
 Group   2 Type C   : 12s5p4d2f1g contracted to 6s4p3d1f1g pattern {711111/2111/211/2/1}
 Group   3 Type H   : 5s2p1d contracted to 3s1p1d pattern {311/2/1}

Atom   0O    basis set group =>   1
Atom   1O    basis set group =>   1
Atom   2C    basis set group =>   2
Atom   3C    basis set group =>   2
Atom   4C    basis set group =>   2
Atom   5C    basis set group =>   2
Atom   6C    basis set group =>   2
Atom   7C    basis set group =>   2
Atom   8C    basis set group =>   2
Atom   9C    basis set group =>   2
Atom  10C    basis set group =>   2
Atom  11C    basis set group =>   2
Atom  12C    basis set group =>   2
Atom  13C    basis set group =>   2
Atom  14C    basis set group =>   2
Atom  15C    basis set group =>   2
Atom  16C    basis set group =>   2
Atom  17C    basis set group =>   2
Atom  18C    basis set group =>   2
Atom  19C    basis set group =>   2
Atom  20H    basis set group =>   3
Atom  21H    basis set group =>   3
Atom  22H    basis set group =>   3
Atom  23H    basis set group =>   3
Atom  24H    basis set group =>   3
Atom  25H    basis set group =>   3
Atom  26H    basis set group =>   3
Atom  27H    basis set group =>   3
Atom  28H    basis set group =>   3
Atom  29H    basis set group =>   3
Atom  30H    basis set group =>   3
Atom  31H    basis set group =>   3
Atom  32H    basis set group =>   3
Atom  33H    basis set group =>   3
Atom  34H    basis set group =>   3
Atom  35H    basis set group =>   3
Atom  36H    basis set group =>   3
Atom  37H    basis set group =>   3
Atom  38H    basis set group =>   3
Atom  39H    basis set group =>   3
Atom  40C    basis set group =>   2
Atom  41O    basis set group =>   1
Atom  42C    basis set group =>   2
Atom  43C    basis set group =>   2
Atom  44O    basis set group =>   1
Atom  45O    basis set group =>   1
Atom  46H    basis set group =>   3
Atom  47H    basis set group =>   3
--------------------------------------------------------------------------
WARNING: There was an error initializing an OpenFabrics device.

  Local host:   ga01
  Local device: mlx5_0
--------------------------------------------------------------------------


           ************************************************************
           *        Program running with 25 parallel MPI-processes    *
           *              working on a common directory               *
           ************************************************************
------------------------------------------------------------------------------
                             ORCA STARTUP CALCULATIONS
                           -- RI-GTO INTEGRALS CHOSEN --
------------------------------------------------------------------------------
------------------------------------------------------------------------------
                   ___                                                        
                  /   \      - P O W E R E D   B Y -                         
                 /     \                                                     
                 |  |  |   _    _      __       _____    __    __             
                 |  |  |  | |  | |    /  \     |  _  \  |  |  /  |          
                  \  \/   | |  | |   /    \    | | | |  |  | /  /          
                 / \  \   | |__| |  /  /\  \   | |_| |  |  |/  /          
                |  |  |   |  __  | /  /__\  \  |    /   |      \           
                |  |  |   | |  | | |   __   |  |    \   |  |\   \          
                \     /   | |  | | |  |  |  |  | |\  \  |  | \   \       
                 \___/    |_|  |_| |__|  |__|  |_| \__\ |__|  \__/        
                                                                              
                      - O R C A' S   B I G   F R I E N D -                    
                                      &                                       
                       - I N T E G R A L  F E E D E R -                       
                                                                              
 v1 FN, 2020, v2 2021, v3 2022-2024                                           
------------------------------------------------------------------------------


----------------------
SHARK INTEGRAL PACKAGE
----------------------

Number of atoms                             ...     48
Number of basis functions                   ...    938
Number of shells                            ...    374
Maximum angular momentum                    ...      3
Integral batch strategy                     ... SHARK/LIBINT Hybrid
RI-J (if used) integral strategy            ... SPLIT-RIJ (Revised 2003 algorithm where possible)
Printlevel                                  ...      1
Contraction scheme used                     ... SEGMENTED contraction
Prescreening option                         ... SCHWARTZ
   Thresh                                   ... 2.500e-11
   Tcut                                     ... 2.500e-12
   Tpresel                                  ... 2.500e-12 
Coulomb Range Separation                    ... NOT USED
Exchange Range Separation                   ... NOT USED
Multipole approximations                    ... NOT USED
Finite Nucleus Model                        ... NOT USED
CABS basis                                  ... NOT available
Auxiliary Coulomb fitting basis             ... AVAILABLE
   # of basis functions in Aux-J            ...   1516
   # of shells in Aux-J                     ...    500
   Maximum angular momentum in Aux-J        ...      4
Auxiliary J/K fitting basis                 ... NOT available
Auxiliary Correlation fitting basis         ... NOT available
Auxiliary 'external' fitting basis          ... NOT available

Checking pre-screening integrals            ... done (  0.0 sec) Dimension = 374
Check shell pair data                       ... done (  0.0 sec)
Shell pair information
Shell pair cut-off parameter TPreSel        ...   2.5e-12
Total number of shell pairs                 ...     70125
Shell pairs after pre-screening             ...     44426
Total number of primitive shell pairs       ...    213516
Primitive shell pairs kept                  ...     87875
          la=0 lb=0:  11816 shell pairs
          la=1 lb=0:  13033 shell pairs
          la=1 lb=1:   3620 shell pairs
          la=2 lb=0:   6168 shell pairs
          la=2 lb=1:   3488 shell pairs
          la=2 lb=2:    845 shell pairs
          la=3 lb=0:   2860 shell pairs
          la=3 lb=1:   1652 shell pairs
          la=3 lb=2:    751 shell pairs
          la=3 lb=3:    193 shell pairs

Calculating one electron integrals          ... done (  0.1 sec)
Calculating RI/J V-Matrix + Cholesky decomp.... done (  0.1 sec)
Calculating Nuclear repulsion               ... done (  0.0 sec) ENN=   2281.405631775230 Eh

Diagonalization of the overlap matrix:
Smallest eigenvalue                        ... 5.713e-06
Time for diagonalization                   ...    0.137 sec
Threshold for overlap eigenvalues          ... 1.000e-07
Number of eigenvalues below threshold      ... 0
Time for construction of square roots      ...    0.069 sec
Total time needed                          ...    0.215 sec

-------------------
DFT GRID GENERATION
-------------------

General Integration Accuracy     IntAcc      ... 4.388
Radial Grid Type                 RadialGrid  ... OptM3 with GC (2021)
Angular Grid (max. ang.)         AngularGrid ... 4 (Lebedev-302)
Angular grid pruning method      GridPruning ... 4 (adaptive)
Weight generation scheme         WeightScheme... mBecke (2022)
Basis function cutoff            BFCut       ... 1.0000e-11
Integration weight cutoff        WCut        ... 1.0000e-14
Partially contracted basis set               ... off
Rotationally invariant grid construction     ... off
Angular grids for H and He will be reduced by one unit

Total number of grid points                  ...   225543
Total number of batches                      ...     3550
Average number of points per batch           ...       63
Average number of grid points per atom       ...     4699

--------------------
COSX GRID GENERATION
--------------------

GRIDX 1
-------
General Integration Accuracy     IntAcc      ... 3.816
Radial Grid Type                 RadialGrid  ... OptM3 with GC (2021)
Angular Grid (max. ang.)         AngularGrid ... 1 (Lebedev-50)
Angular grid pruning method      GridPruning ... 4 (adaptive)
Weight generation scheme         WeightScheme... mBecke (2022)
Basis function cutoff            BFCut       ... 1.0000e-11
Integration weight cutoff        WCut        ... 1.0000e-14
Partially contracted basis set               ... on
Rotationally invariant grid construction     ... off
Angular grids for H and He will be reduced by one unit

Total number of grid points                  ...    28634
Total number of batches                      ...      253
Average number of points per batch           ...      113
Average number of grid points per atom       ...      597
UseSFitting                                  ... on

GRIDX 2
-------
General Integration Accuracy     IntAcc      ... 4.020
Radial Grid Type                 RadialGrid  ... OptM3 with GC (2021)
Angular Grid (max. ang.)         AngularGrid ... 2 (Lebedev-110)
Angular grid pruning method      GridPruning ... 4 (adaptive)
Weight generation scheme         WeightScheme... mBecke (2022)
Basis function cutoff            BFCut       ... 1.0000e-11
Integration weight cutoff        WCut        ... 1.0000e-14
Partially contracted basis set               ... on
Rotationally invariant grid construction     ... off
Angular grids for H and He will be reduced by one unit

Total number of grid points                  ...    61731
Total number of batches                      ...      509
Average number of points per batch           ...      121
Average number of grid points per atom       ...     1286
UseSFitting                                  ... on

GRIDX 3
-------
General Integration Accuracy     IntAcc      ... 4.338
Radial Grid Type                 RadialGrid  ... OptM3 with GC (2021)
Angular Grid (max. ang.)         AngularGrid ... 3 (Lebedev-194)
Angular grid pruning method      GridPruning ... 4 (adaptive)
Weight generation scheme         WeightScheme... mBecke (2022)
Basis function cutoff            BFCut       ... 1.0000e-11
Integration weight cutoff        WCut        ... 1.0000e-14
Partially contracted basis set               ... on
Rotationally invariant grid construction     ... off
Angular grids for H and He will be reduced by one unit

Total number of grid points                  ...   134816
Total number of batches                      ...     1077
Average number of points per batch           ...      125
Average number of grid points per atom       ...     2809
UseSFitting                                  ... on
Initializing property integral containers    ... done (  0.0 sec)

SHARK setup successfully completed in   3.2 seconds

Maximum memory used throughout the entire STARTUP-calculation: 97.3 MB
[ga01:928597] 24 more processes have sent help message help-mpi-btl-openib.txt / error in device init
[ga01:928597] Set MCA parameter "orte_base_help_aggregate" to 0 to see all help / error messages
--------------------------------------------------------------------------
WARNING: There was an error initializing an OpenFabrics device.

  Local host:   ga01
  Local device: mlx5_0
--------------------------------------------------------------------------


           ************************************************************
           *        Program running with 25 parallel MPI-processes    *
           *              working on a common directory               *
           ************************************************************
-------------------------------------------------------------------------------
                                 ORCA GUESS
                   Start orbitals & Density for SCF / CASSCF
-------------------------------------------------------------------------------

------------
SCF SETTINGS
------------
Hamiltonian:
 Density Functional     Method          .... DFT(GTOs)
 Exchange Functional    Exchange        .... B88
   X-Alpha parameter    XAlpha          ....  0.666667
   Becke's b parameter  XBeta           ....  0.004200
 Correlation Functional Correlation     .... LYP
 LDA part of GGA corr.  LDAOpt          .... VWN-5
 Gradients option       PostSCFGGA      .... off
 Hybrid DFT is turned on
   Fraction HF Exchange ScalHFX         ....  0.200000
   Scaling of DF-GGA-X  ScalDFX         ....  0.720000
   Scaling of DF-GGA-C  ScalDFC         ....  0.810000
   Scaling of DF-LDA-C  ScalLDAC        ....  1.000000
   Perturbative correction              ....  0.000000
   NL short-range parameter             ....  4.800000
 RI-approximation to the Coulomb term is turned on
   Number of AuxJ basis functions       .... 1516
   RIJ-COSX (HFX calculated with COS-X)).... on


General Settings:
 Integral files         IntName         .... honokiol2-opt_EC_closer
 Hartree-Fock type      HFTyp           .... RHF
 Total Charge           Charge          ....    0
 Multiplicity           Mult            ....    1
 Number of Electrons    NEL             ....  188
 Basis Dimension        Dim             ....  938
 Nuclear Repulsion      ENuc            ....   2281.4056317752 Eh

Convergence Acceleration:
 AO-DIIS                CNVDIIS         .... on
   Start iteration      DIISMaxIt       ....    12
   Startup error        DIISStart       ....  0.200000
   # of expansion vecs  DIISMaxEq       ....     5
   Bias factor          DIISBfac        ....   1.050
   Max. coefficient     DIISMaxC        ....  10.000
 MO-DIIS                CNVKDIIS        .... off
 Trust-Rad. Augm. Hess. CNVTRAH         .... auto
   Auto Start mean grad. ratio tolernc. ....  1.125000
   Auto Start start iteration           ....    50
   Auto Start num. interpolation iter.  ....    10
   Max. Number of Micro iterations      ....    24
   Max. Number of Macro iterations      .... Maxiter - #DIIS iter
   Number of Davidson start vectors     ....     2
   Converg. threshold    (grad. norm)   ....   1.000e-05
   Grad. Scal. Fac. for Micro threshold ....   0.100
   Minimum threshold for Micro iter.    ....   1.000e-02
   NR start threshold (gradient norm)   ....   1.000e-04
   Initial trust radius                 ....   0.400
   Minimum AH scaling param. (alpha)    ....   1.000
   Maximum AH scaling param. (alpha)    .... 1000.000
   Quad. conv. algorithm                .... NR
   White noise on init. David. guess    .... on
   Maximum white noise                  ....   0.010
   Pseudo random numbers                .... off
   Inactive MOs                         .... canonical
   Orbital update algorithm             .... Taylor
   Preconditioner                       .... Diag
   Full preconditioner red. dimension   ....   250
 SOSCF                  CNVSOSCF        .... on
   Start iteration      SOSCFMaxIt      ....   150
   Startup grad/error   SOSCFStart      ....  0.003300
   Hessian update       SOSCFHessUp     .... L-BFGS
 Level Shifting         CNVShift        .... on
   Level shift para.    LevelShift      ....    0.2500
   Turn off err/grad.   ShiftErr        ....    0.0010
 Zerner damping         CNVZerner       .... off
 Static damping         CNVDamp         .... on
   Fraction old density DampFac         ....    0.7000
   Max. Damping (<1)    DampMax         ....    0.9800
   Min. Damping (>=0)   DampMin         ....    0.0000
   Turn off err/grad.   DampErr         ....    0.1000

SCF Procedure:
 Maximum # iterations   MaxIter         ....   125
 SCF integral mode      SCFMode         .... Direct
   Integral package                     .... SHARK and LIBINT hybrid scheme
 Reset frequency        DirectResetFreq ....    20
 Integral Threshold     Thresh          ....  2.500e-11 Eh
 Primitive CutOff       TCut            ....  2.500e-12 Eh

Convergence Tolerance:
 Convergence Check Mode ConvCheckMode   .... Total+1el-Energy
 Convergence forced     ConvForced      .... 0
 Energy Change          TolE            ....  1.000e-08 Eh
 1-El. energy change                    ....  1.000e-05 Eh
 Orbital Gradient       TolG            ....  1.000e-05
 Orbital Rotation angle TolX            ....  1.000e-05
 DIIS Error             TolErr          ....  5.000e-07

------------------------------
INITIAL GUESS: MODEL POTENTIAL
------------------------------
Loading Hartree-Fock densities                     ... done
Calculating cut-offs                               ... done
Initializing the effective Hamiltonian             ... done
Setting up the integral package (SHARK)            ... done
Starting the Coulomb interaction                   ... done (   0.2 sec)
Making the grid                                    ... done (   0.3 sec)
Mapping shells                                     ... done
Starting the XC term evaluation                    ... done (   0.1 sec)
  promolecular density results
     # of electrons  =    187.986282910
     EX              =   -155.548842882
     EC              =     -6.401751823
     EX+EC           =   -161.950594705
Transforming the Hamiltonian                       ... done (   0.1 sec)
Diagonalizing the Hamiltonian                      ... done (   0.1 sec)
Back transforming the eigenvectors                 ... done (   0.0 sec)
Now organizing SCF variables                       ... done
                      ------------------
                      INITIAL GUESS DONE (   1.4 sec)
                      ------------------
             **** ENERGY FILE WAS UPDATED (honokiol2-opt_EC_closer.en.tmp) ****
Finished Guess after   2.2 sec
Maximum memory used throughout the entire GUESS-calculation: 79.7 MB
[ga01:928710] 24 more processes have sent help message help-mpi-btl-openib.txt / error in device init
[ga01:928710] Set MCA parameter "orte_base_help_aggregate" to 0 to see all help / error messages
--------------------------------------------------------------------------
WARNING: There was an error initializing an OpenFabrics device.

  Local host:   ga01
  Local device: mlx5_0
--------------------------------------------------------------------------


           ************************************************************
           *        Program running with 25 parallel MPI-processes    *
           *              working on a common directory               *
           ************************************************************

-------------------------------------------------------------------------------------------
                                      ORCA LEAN-SCF
                              memory conserving SCF solver
-------------------------------------------------------------------------------------------

----------------------------------------D-I-I-S--------------------------------------------
Iteration    Energy (Eh)           Delta-E    RMSDP     MaxDP     DIISErr   Damp  Time(sec)
-------------------------------------------------------------------------------------------
               ***  Starting incremental Fock matrix formation  ***
[ga01:928824] 24 more processes have sent help message help-mpi-btl-openib.txt / error in device init
[ga01:928824] Set MCA parameter "orte_base_help_aggregate" to 0 to see all help / error messages
    1    -1188.6140465095545551     0.00e+00  1.33e-03  1.87e-01  2.97e-01  0.700   5.1
    2    -1188.9504809343279703    -3.36e-01  1.19e-03  1.97e-01  1.09e-01  0.700   3.2
                               ***Turning on AO-DIIS***
    3    -1189.0871077791580319    -1.37e-01  4.38e-04  5.54e-02  3.94e-02  0.700   2.9
    4    -1189.1687070806551674    -8.16e-02  6.40e-04  3.84e-02  1.92e-02  0.000   2.8
    5    -1189.3463252777773960    -1.78e-01  2.88e-04  5.09e-02  5.41e-03  0.000   2.9
                              *** Initializing SOSCF ***
---------------------------------------S-O-S-C-F--------------------------------------
Iteration    Energy (Eh)           Delta-E    RMSDP     MaxDP     MaxGrad    Time(sec)
--------------------------------------------------------------------------------------
    6    -1189.3472269887047332    -9.02e-04  1.04e-04  1.65e-02  1.87e-03     2.9
               *** Restarting incremental Fock matrix formation ***
    7    -1189.3472533517624470    -2.64e-05  8.17e-05  1.08e-02  2.26e-04     4.9
    8    -1189.3472461680253218     7.18e-06  1.42e-05  1.49e-03  5.33e-04     3.6
    9    -1189.3472609526106680    -1.48e-05  1.06e-05  6.66e-04  7.02e-05     3.2
   10    -1189.3472606612231175     2.91e-07  3.01e-06  2.50e-04  7.58e-05     3.1
   11    -1189.3472612848181598    -6.24e-07  2.78e-06  3.63e-04  1.36e-05     2.6
   12    -1189.3472612923183078    -7.50e-09  1.04e-06  8.80e-05  2.03e-05     2.5
                 **** Energy Check signals convergence ****

               *****************************************************
               *                     SUCCESS                       *
               *           SCF CONVERGED AFTER  12 CYCLES          *
               *****************************************************

Recomputing exchange energy using gridx3       ... done (    7.254 sec)
Old exchange energy                            :    -31.593893823 Eh
New exchange energy                            :    -31.593881089 Eh
Exchange energy change after final integration :      0.000012734 Eh
Total energy after final integration           :  -1189.347248558 Eh
             **** ENERGY FILE WAS UPDATED (honokiol2-opt_EC_closer.en.tmp) ****

----------------
TOTAL SCF ENERGY
----------------

Total Energy       :      -1189.34724855793866 Eh          -32363.78398 eV

Components:
Nuclear Repulsion  :       2281.40563177522972 Eh           62080.20334 eV
Electronic Energy  :      -3470.75289306754803 Eh          -94443.98766 eV
One Electron Energy:      -6154.14123643704261 Eh         -167462.69668 eV
Two Electron Energy:       2683.38834336949458 Eh           73018.70902 eV

Virial components:
Potential Energy   :      -2373.50670231852746 Eh          -64586.40088 eV
Kinetic Energy     :       1184.15945376058880 Eh           32222.61690 eV
Virial Ratio       :          2.00438099343874

DFT components:
N(Alpha)           :       93.999962712896 electrons
N(Beta)            :       93.999962712896 electrons
N(Total)           :      187.999925425791 electrons
E(X)               :     -125.586030423552 Eh       
E(C)               :       -7.548485088634 Eh       
E(XC)              :     -133.134515512186 Eh       

---------------
SCF CONVERGENCE
---------------

  Last Energy change         ...    7.5001e-09  Tolerance :   1.0000e-08
  Last MAX-Density change    ...    8.7972e-05  Tolerance :   1.0000e-07
  Last RMS-Density change    ...    1.0424e-06  Tolerance :   5.0000e-09
  Last DIIS Error            ...    1.8741e-03  Tolerance :   5.0000e-07
  Last Orbital Gradient      ...    2.0283e-05  Tolerance :   1.0000e-05
  Last Orbital Rotation      ...    3.2446e-05  Tolerance :   1.0000e-05


----------------
ORBITAL ENERGIES
----------------

  NO   OCC          E(Eh)            E(eV) 
   0   2.0000     -19.194409      -522.3064 
   1   2.0000     -19.193414      -522.2794 
   2   2.0000     -19.157739      -521.3086 
   3   2.0000     -19.125218      -520.4236 
   4   2.0000     -19.122820      -520.3584 
   5   2.0000     -10.355994      -281.8009 
   6   2.0000     -10.261830      -279.2386 
   7   2.0000     -10.258739      -279.1545 
   8   2.0000     -10.235756      -278.5291 
   9   2.0000     -10.217324      -278.0275 
  10   2.0000     -10.201820      -277.6056 
  11   2.0000     -10.196412      -277.4585 
  12   2.0000     -10.189321      -277.2655 
  13   2.0000     -10.186834      -277.1978 
  14   2.0000     -10.176820      -276.9254 
  15   2.0000     -10.174000      -276.8486 
  16   2.0000     -10.172135      -276.7979 
  17   2.0000     -10.169448      -276.7248 
  18   2.0000     -10.168814      -276.7075 
  19   2.0000     -10.167948      -276.6839 
  20   2.0000     -10.167125      -276.6615 
  21   2.0000     -10.162068      -276.5239 
  22   2.0000     -10.158852      -276.4364 
  23   2.0000     -10.158342      -276.4225 
  24   2.0000     -10.154820      -276.3267 
  25   2.0000     -10.151426      -276.2343 
  26   2.0000      -1.170743       -31.8575 
  27   2.0000      -1.063172       -28.9304 
  28   2.0000      -1.059124       -28.8202 
  29   2.0000      -1.053133       -28.6572 
  30   2.0000      -1.033538       -28.1240 
  31   2.0000      -0.866054       -23.5665 
  32   2.0000      -0.844039       -22.9675 
  33   2.0000      -0.822436       -22.3796 
  34   2.0000      -0.795550       -21.6480 
  35   2.0000      -0.791671       -21.5425 
  36   2.0000      -0.769907       -20.9502 
  37   2.0000      -0.761438       -20.7198 
  38   2.0000      -0.733323       -19.9547 
  39   2.0000      -0.715980       -19.4828 
  40   2.0000      -0.695573       -18.9275 
  41   2.0000      -0.693016       -18.8579 
  42   2.0000      -0.667935       -18.1754 
  43   2.0000      -0.628055       -17.0902 
  44   2.0000      -0.620892       -16.8953 
  45   2.0000      -0.616713       -16.7816 
  46   2.0000      -0.590729       -16.0746 
  47   2.0000      -0.582551       -15.8520 
  48   2.0000      -0.578176       -15.7330 
  49   2.0000      -0.553584       -15.0638 
  50   2.0000      -0.548893       -14.9361 
  51   2.0000      -0.544931       -14.8283 
  52   2.0000      -0.535143       -14.5620 
  53   2.0000      -0.527212       -14.3462 
  54   2.0000      -0.520142       -14.1538 
  55   2.0000      -0.495685       -13.4883 
  56   2.0000      -0.486900       -13.2492 
  57   2.0000      -0.478522       -13.0213 
  58   2.0000      -0.470078       -12.7915 
  59   2.0000      -0.459012       -12.4904 
  60   2.0000      -0.458442       -12.4748 
  61   2.0000      -0.456615       -12.4251 
  62   2.0000      -0.454606       -12.3704 
  63   2.0000      -0.451800       -12.2941 
  64   2.0000      -0.440865       -11.9966 
  65   2.0000      -0.427040       -11.6203 
  66   2.0000      -0.424409       -11.5488 
  67   2.0000      -0.419360       -11.4114 
  68   2.0000      -0.417444       -11.3592 
  69   2.0000      -0.414042       -11.2667 
  70   2.0000      -0.402911       -10.9638 
  71   2.0000      -0.394754       -10.7418 
  72   2.0000      -0.393744       -10.7143 
  73   2.0000      -0.392664       -10.6849 
  74   2.0000      -0.391770       -10.6606 
  75   2.0000      -0.381949       -10.3934 
  76   2.0000      -0.377541       -10.2734 
  77   2.0000      -0.368267       -10.0210 
  78   2.0000      -0.354384        -9.6433 
  79   2.0000      -0.350502        -9.5376 
  80   2.0000      -0.349096        -9.4994 
  81   2.0000      -0.342548        -9.3212 
  82   2.0000      -0.334430        -9.1003 
  83   2.0000      -0.326954        -8.8969 
  84   2.0000      -0.323490        -8.8026 
  85   2.0000      -0.320018        -8.7081 
  86   2.0000      -0.313656        -8.5350 
  87   2.0000      -0.309231        -8.4146 
  88   2.0000      -0.290334        -7.9004 
  89   2.0000      -0.258572        -7.0361 
  90   2.0000      -0.254405        -6.9227 
  91   2.0000      -0.250847        -6.8259 
  92   2.0000      -0.223017        -6.0686 
  93   2.0000      -0.201674        -5.4878 
  94   0.0000      -0.029526        -0.8034 
  95   0.0000      -0.017468        -0.4753 
  96   0.0000      -0.010856        -0.2954 
  97   0.0000       0.007383         0.2009 
  98   0.0000       0.007859         0.2139 
  99   0.0000       0.010992         0.2991 
 100   0.0000       0.019043         0.5182 
 101   0.0000       0.027503         0.7484 
 102   0.0000       0.031461         0.8561 
 103   0.0000       0.039726         1.0810 
 104   0.0000       0.048392         1.3168 
*Only the first 10 virtual orbitals were printed.

                    ********************************
                    * MULLIKEN POPULATION ANALYSIS *
                    ********************************

-----------------------
MULLIKEN ATOMIC CHARGES
-----------------------
   0 O :   -0.394834
   1 O :   -0.431344
   2 C :    0.120788
   3 C :    0.094318
   4 C :    0.109246
   5 C :   -0.258207
   6 C :    0.128637
   7 C :   -0.265338
   8 C :    0.209648
   9 C :   -0.211337
  10 C :    0.204425
  11 C :   -0.222290
  12 C :   -0.194843
  13 C :   -0.138318
  14 C :   -0.192548
  15 C :   -0.233384
  16 C :   -0.161452
  17 C :   -0.085771
  18 C :   -0.262889
  19 C :   -0.266293
  20 H :    0.117172
  21 H :    0.114867
  22 H :    0.119860
  23 H :    0.113305
  24 H :    0.121672
  25 H :    0.099710
  26 H :    0.104008
  27 H :    0.090846
  28 H :    0.107759
  29 H :    0.101038
  30 H :    0.125196
  31 H :    0.100505
  32 H :    0.335846
  33 H :    0.326208
  34 H :    0.127617
  35 H :    0.116089
  36 H :    0.106305
  37 H :    0.099176
  38 H :    0.116833
  39 H :    0.118239
  40 C :   -0.019439
  41 O :   -0.254805
  42 C :    0.437864
  43 C :   -0.018389
  44 O :   -0.259790
  45 O :   -0.328498
  46 H :    0.106464
  47 H :    0.126132
Sum of atomic charges:   -0.0000000

--------------------------------
MULLIKEN REDUCED ORBITAL CHARGES
--------------------------------
  0 O s       :     3.760971  s :     3.760971
      pz      :     1.490445  p :     4.602251
      px      :     1.363310
      py      :     1.748497
      dz2     :     0.009927  d :     0.029882
      dxz     :     0.004147
      dyz     :     0.006458
      dx2y2   :     0.005295
      dxy     :     0.004055
      f0      :     0.000221  f :     0.001730
      f+1     :     0.000394
      f-1     :     0.000245
      f+2     :     0.000230
[...]
   174. D(H  26,C  12,C   6,C   7)   -175.34 -0.000016   -0.28   -175.62   
   175. D(H  25,C  12,C   6,C  13)    120.23 -0.000014   -0.34    119.88   
   176. D(H  25,C  12,C   6,C   7)    -59.14 -0.000018   -0.29    -59.44   
   177. D(C  17,C  12,C   6,C  13)   -117.03 -0.000006   -0.34   -117.37   
   178. D(C  17,C  12,C   6,C   7)     63.60 -0.000010   -0.29     63.31   
   179. D(H  27,C  13,C   6,C  12)      0.16 -0.000014    0.10      0.25   
   180. D(H  27,C  13,C   6,C   7)    179.55 -0.000010    0.05    179.59   
   181. D(C  15,C  13,C   6,C  12)    179.77 -0.000007    0.06    179.84   
   182. D(C  15,C  13,C   6,C   7)     -0.84 -0.000003    0.01     -0.82   
   183. D(H  28,C  14,C  10,C   4)   -178.85 -0.000009   -0.01   -178.86   
   184. D(H  28,C  14,C  10,O   1)      3.51 -0.000022    0.01      3.52   
   185. D(C   9,C  14,C  10,C   4)      0.83 -0.000039    0.08      0.90   
   186. D(C   9,C  14,C  10,O   1)   -176.82 -0.000052    0.10   -176.71   
   187. D(H  28,C  14,C   9,H  22)     -0.59 -0.000038    0.10     -0.49   
   188. D(H  28,C  14,C   9,C   3)    178.72 -0.000017    0.07    178.79   
   189. D(C  10,C  14,C   9,H  22)    179.74 -0.000007    0.01    179.75   
   190. D(C  10,C  14,C   9,C   3)     -0.94  0.000014   -0.02     -0.97   
   191. D(C   8,C  15,C  13,C   6)      0.52 -0.000002    0.02      0.55   
   192. D(H  29,C  15,C   8,C   2)    179.99  0.000014   -0.07    179.92   
   193. D(H  29,C  15,C   8,O   0)     -0.32 -0.000018   -0.09     -0.42   
   194. D(C  13,C  15,C   8,C   2)      0.91  0.000004   -0.04      0.86   
   195. D(C  13,C  15,C   8,O   0)   -179.41 -0.000028   -0.07   -179.48   
   196. D(H  29,C  15,C  13,H  27)      1.08 -0.000007    0.01      1.10   
   197. D(H  29,C  15,C  13,C   6)   -178.53 -0.000014    0.05   -178.49   
   198. D(C   8,C  15,C  13,H  27)   -179.86  0.000005   -0.01   -179.87   
   199. D(H  30,C  16,C  11,H  23)   -178.10  0.000014    0.23   -177.86   
   200. D(H  30,C  16,C  11,C   4)    -54.38 -0.000008    0.21    -54.17   
   201. D(C  18,C  16,C  11,H  24)   -114.51 -0.000087    0.34   -114.17   
   202. D(C  18,C  16,C  11,H  23)      1.35  0.000011    0.29      1.64   
   203. D(C  18,C  16,C  11,C   4)    125.06 -0.000011    0.27    125.33   
   204. D(H  31,C  17,C  12,H  25)   -179.86  0.000009    0.04   -179.82   
   205. D(H  31,C  17,C  12,C   6)     56.74 -0.000008    0.05     56.79   
   206. D(C  19,C  17,C  12,H  26)    116.46  0.000002    0.03    116.49   
   207. D(C  19,C  17,C  12,H  25)      0.53  0.000009    0.04      0.57   
   208. D(C  19,C  17,C  12,C   6)   -122.86 -0.000008    0.04   -122.82   
   209. D(H  35,C  18,C  16,H  30)   -179.38  0.000031   -0.04   -179.42   
   210. D(H  35,C  18,C  16,C  11)      1.19  0.000035   -0.10      1.09   
   211. D(H  34,C  18,C  16,H  30)     -0.76  0.000032   -0.02     -0.78   
   212. D(H  34,C  18,C  16,C  11)    179.81  0.000035   -0.07    179.74   
   213. D(H  37,C  19,C  17,H  31)   -179.67  0.000002   -0.00   -179.67   
   214. D(H  37,C  19,C  17,C  12)     -0.08  0.000002    0.00     -0.07   
   215. D(H  36,C  19,C  17,H  31)      0.61  0.000001    0.00      0.61   
   216. D(H  36,C  19,C  17,C  12)   -179.80  0.000001    0.01   -179.79   
   217. D(O  45,H  32,O   0,C   8)   -163.54 -0.000708    1.74   -161.80   
   218. D(O  45,C  42,O  41,C  43)   -172.54 -0.000024    0.11   -172.43   
   219. D(O  44,C  42,O  41,C  43)      7.95  0.000010    0.13      8.07   
   220. D(H  47,C  43,O  41,C  42)    103.54  0.000068   -0.29    103.25   
   221. D(H  39,C  43,O  41,C  42)   -136.62  0.000068   -0.31   -136.93   
   222. D(O  41,C  43,C  40,H  46)    134.58  0.000012    0.36    134.94   
   223. D(O  41,C  43,C  40,O  44)     17.46 -0.000008    0.36     17.82   
   224. D(O  41,C  43,C  40,H  38)    -99.49  0.000035    0.36    -99.13   
   225. D(H  39,C  43,C  40,H  46)   -108.28 -0.000015    0.36   -107.92   
   226. D(C  40,C  43,O  41,C  42)    -15.90  0.000005   -0.31    -16.21   
   227. D(H  39,C  43,C  40,O  44)    134.60 -0.000034    0.36    134.96   
   228. D(H  39,C  43,C  40,H  38)     17.65  0.000009    0.36     18.00   
   229. D(C  40,O  44,C  42,O  45)   -175.03  0.000016    0.15   -174.88   
   230. D(C  40,O  44,C  42,O  41)      4.49 -0.000018    0.13      4.61   
   231. D(C  42,O  44,C  40,H  46)   -134.17  0.000019   -0.35   -134.52   
   232. D(C  42,O  44,C  40,C  43)    -13.89  0.000016   -0.31    -14.20   
   233. D(C  42,O  44,C  40,H  38)    106.28 -0.000037   -0.34    105.94   
   234. D(H  32,O  45,C  42,O  44)   -111.83  0.000094   -2.91   -114.74   
   235. D(H  32,O  45,C  42,O  41)     68.72  0.000131   -2.89     65.83   
   236. D(C  42,O  45,H  32,O   0)   -137.57  0.000027    2.32   -135.25   
    ----------------------------------------------------------------------------

Geometry step timings:
Preparation and reading OPT file:      0.002 s ( 7.746 %)
Internal coordinates            :      0.000 s ( 0.184 %)
B/P matrices and projection     :      0.005 s (27.511 %)
Hessian update/contruction      :      0.002 s (11.218 %)
Making the step                 :      0.008 s (40.031 %)
Converting the step to Cartesian:      0.000 s ( 1.966 %)
Storing new data                :      0.000 s ( 0.822 %)
Checking convergence            :      0.000 s ( 0.133 %)
Final printing                  :      0.002 s (10.365 %)
Total time                      :      0.020 s
--------------------------------------------------------------------------
WARNING: There was an error initializing an OpenFabrics device.

  Local host:   ga01
  Local device: mlx5_0
--------------------------------------------------------------------------
[ga01:945465] 24 more processes have sent help message help-mpi-btl-openib.txt / error in device init
[ga01:945465] Set MCA parameter "orte_base_help_aggregate" to 0 to see all help / error messages

Time for energy+gradient        :     62.563 s
Time for complete geometry iter :     63.524 s

         *************************************************************
         *                GEOMETRY OPTIMIZATION CYCLE  25            *
         *************************************************************
---------------------------------
CARTESIAN COORDINATES (ANGSTROEM)
---------------------------------
  O      1.103497    1.439134    2.399821
  O     -3.839448   -2.509595    1.803299
  C      1.052057   -0.005708    0.428463
  C     -0.238030   -0.651835    0.782514
  C     -2.523883   -1.279608    0.167541
  C     -1.305297   -0.666879   -0.118264
  C      2.946808    0.151557   -1.118128
  C      1.712662   -0.375570   -0.746698
  C      1.652347    0.968581    1.249106
  C     -0.413970   -1.299710    2.009007
  C     -2.662603   -1.919826    1.406684
  C     -3.673661   -1.214315   -0.818098
  C      3.633321   -0.299107   -2.394168
  C      3.529295    1.092556   -0.270417
  C     -1.607881   -1.934423    2.313354
  C      2.890694    1.498994    0.891199
  C     -4.166521   -2.564857   -1.269920
  C      2.861416    0.036637   -3.640274
  C     -5.426068   -2.985762   -1.189668
  C      2.457922   -0.840875   -4.551626
  H     -1.192864   -0.157461   -1.068697
  H      1.248156   -1.124570   -1.378499
  H      0.396030   -1.316453    2.726796
  H     -4.510085   -0.651426   -0.389047
  H     -3.336998   -0.650251   -1.692434
  H      3.816485   -1.377963   -2.365860
  H      4.615672    0.182310   -2.443987
  H      4.493115    1.520526   -0.522968
  H     -1.737414   -2.452571    3.254985
  H      3.330942    2.247431    1.537642
  H     -3.410595   -3.228447   -1.682084
  H      2.624215    1.089307   -3.775400
  H      0.141640    1.315127    2.447827
  H     -4.357252   -2.763616    1.024881
  H     -5.718608   -3.968831   -1.536471
  H     -6.213720   -2.352430   -0.793511
  H      1.906626   -0.533340   -5.431696
  H      2.668871   -1.900547   -4.452446
  H     -5.570090    1.461308    4.074429
  H     -4.589079   -0.087660    5.646530
  C     -4.968628    0.676479    3.612865
  O     -2.882992    0.400051    4.600144
  C     -2.740346    1.158140    3.493098
  C     -4.202673   -0.170291    4.632862
  O     -3.920423    1.295122    2.849568
  O     -1.715062    1.649927    3.133828
  H     -5.583684    0.083419    2.940019
  H     -4.136923   -1.217932    4.339157

----------------------------
CARTESIAN COORDINATES (A.U.)
----------------------------
  NO LB      ZA    FRAG     MASS         X           Y           Z
   0 O     8.0000    0    15.999    2.085307    2.719570    4.535004
   1 O     8.0000    0    15.999   -7.255505   -4.742447    3.407741
   2 C     6.0000    0    12.011    1.988100   -0.010787    0.809678
   3 C     6.0000    0    12.011   -0.449811   -1.231789    1.478737
   4 C     6.0000    0    12.011   -4.769447   -2.418109    0.316607
   5 C     6.0000    0    12.011   -2.466653   -1.260220   -0.223487
   6 C     6.0000    0    12.011    5.568661    0.286401   -2.112955
   7 C     6.0000    0    12.011    3.236462   -0.709724   -1.411054
   8 C     6.0000    0    12.011    3.122484    1.830353    2.360469
   9 C     6.0000    0    12.011   -0.782289   -2.456097    3.796473
  10 C     6.0000    0    12.011   -5.031590   -3.627946    2.658247
  11 C     6.0000    0    12.011   -6.942212   -2.294723   -1.545981
  12 C     6.0000    0    12.011    6.865981   -0.565230   -4.524322
  13 C     6.0000    0    12.011    6.669401    2.064632   -0.511014
  14 C     6.0000    0    12.011   -3.038454   -3.655530    4.371605
  15 C     6.0000    0    12.011    5.462620    2.832688    1.684123
  16 C     6.0000    0    12.011   -7.873584   -4.846877   -2.399802
  17 C     6.0000    0    12.011    5.407293    0.069233   -6.879121
  18 C     6.0000    0    12.011  -10.253783   -5.642272   -2.248147
  19 C     6.0000    0    12.011    4.644799   -1.589023   -8.601327
  20 H     1.0000    0     1.008   -2.254186   -0.297558   -2.019544
  21 H     1.0000    0     1.008    2.358672   -2.125129   -2.604986
  22 H     1.0000    0     1.008    0.748389   -2.487735    5.152898
  23 H     1.0000    0     1.008   -8.522826   -1.231016   -0.735192
  24 H     1.0000    0     1.008   -6.306011   -1.228797   -3.198237
  25 H     1.0000    0     1.008    7.212112   -2.603973   -4.470827
  26 H     1.0000    0     1.008    8.722356    0.344516   -4.618466
  27 H     1.0000    0     1.008    8.490756    2.873377   -0.988267
  28 H     1.0000    0     1.008   -3.283237   -4.634688    6.151031
  29 H     1.0000    0     1.008    6.294569    4.247029    2.905723
  30 H     1.0000    0     1.008   -6.445090   -6.100880   -3.178678
  31 H     1.0000    0     1.008    4.959047    2.058492   -7.134472
  32 H     1.0000    0     1.008    0.267661    2.485229    4.625722
  33 H     1.0000    0     1.008   -8.234014   -5.222477    1.936745
  34 H     1.0000    0     1.008  -10.806603   -7.500003   -2.903509
  35 H     1.0000    0     1.008  -11.742229   -4.445448   -1.499519
  36 H     1.0000    0     1.008    3.603001   -1.007867  -10.264418
  37 H     1.0000    0     1.008    5.043435   -3.591513   -8.413903
  38 H     1.0000    0     1.008  -10.525945    2.761472    7.699554
  39 H     1.0000    0     1.008   -8.672103   -0.165654   10.670395
  40 C     6.0000    0    12.011   -9.389346    1.278360    6.827325
  41 O     8.0000    0    15.999   -5.448065    0.755986    8.693012
  42 C     6.0000    0    12.011   -5.178504    2.188568    6.600998
  43 C     6.0000    0    12.011   -7.941902   -0.321802    8.754840
  44 O     8.0000    0    15.999   -7.408526    2.447427    5.384904
  45 O     8.0000    0    15.999   -3.240998    3.117910    5.922077
  46 H     1.0000    0     1.008  -10.551634    0.157640    5.555830
  47 H     1.0000    0     1.008   -7.817652   -2.301559    8.199818

--------------------------------
INTERNAL COORDINATES (ANGSTROEM)
--------------------------------
 O      0   0   0     0.000000000000     0.00000000     0.00000000
 O      1   0   0     6.354604633762     0.00000000     0.00000000
 C      1   2   0     2.444681453539    62.65683405     0.00000000
 C      3   1   2     1.485650034903    94.76894634     0.55454078
 C      2   1   3     2.432957196527    47.80620968   325.21413221
 C      5   2   1     1.393583143513   146.40743983    23.93467399
 C      3   1   2     2.450868639473   117.04368304   181.63125778
 C      7   3   1     1.392458372313    28.62005393   181.86294815
 C      1   2   3     1.358970622671    91.11752879   358.82103638
 C      4   3   1     1.398206828160   121.32128195   303.83980997
 C      2   1   3     1.374806861539    25.13160873   357.62358330
 C      5   2   1     1.515828809460    92.79710925   207.38625433
 C      7   3   1     1.517457130625   149.46765898   180.23532302
 C      7   3   1     1.394053203079    89.00369679     1.58961403
 C     10   4   3     1.385969158479   120.87841641   181.97373276
 C     14   7   3     1.386490247968   120.98993166   359.02935801
 C     12   5   2     1.506989635401   113.85480854   299.37395535
 C     13   7   3     1.503775060422   113.47099576    64.22100547
 C     17  12   5     1.330436265314   125.10391433   125.32978318
 C     18  13   7     1.327929878809   125.24915382   237.17725666
 H      6   5   2     1.084190689100   118.49306387   182.96001813
 H      8   7   3     1.084407623692   119.05892842   181.57358487
 H     10   4   3     1.082405695086   119.65026787     1.26298381
 H     12   5   2     1.095689970391   110.27601175    62.45690831
 H     12   5   2     1.093605886702   107.97305247   178.37757057
 H     13   7   3     1.094660335908   110.28266479   301.47239594
 H     13   7   3     1.095106562121   108.27184108   185.28854580
 H     14   7   3     1.084383693745   119.74631814   179.44643840
 H     15  10   4     1.082555820787   120.88211196   178.79521234
 H     16  14   7     1.082527148709   121.04192148   181.51124101
 H     17  12   5     1.087039547235   115.67913129   305.82755834
 H     18  13   7     1.087491616624   115.53387676    56.78812821
 H      1   2   3     0.971004915734    32.30215038   134.34358283
 H      2   1   3     0.968804848460   130.85146209   319.86561617
 H     19  17  12     1.082716749025   121.58224627   179.73517964
 H     19  17  12     1.085562061160   121.62453459     1.09306166
 H     20  18  13     1.083063617896   121.64769137   180.21137193
 H     20  18  13     1.085007426449   121.57215162   359.92621143
 H      2   1   3     4.890932388580    74.16575778   212.40225928
 H     39   2   1     2.415198997452    68.76661326   274.94797027
 C     39   2   1     1.091216815224    12.74038024   348.97370108
 O     40  39   2     2.059980944400    81.60022152    65.00579939
 C     42  40  39     1.349295712614   129.59348865   354.14662051
 C     40  39   2     1.087961732395    65.57516610    24.91009898
 O     43  42  40     1.351101197153   110.81871102   341.72444273
 O     43  42  40     1.192533509637   124.73383110   161.22758513
 H     41  39  45     1.087536583734   110.00977390   241.34894601
 H     44  40  39     1.090018028884   110.21051259   224.60148816

---------------------------
INTERNAL COORDINATES (A.U.)
---------------------------
 O      0   0   0     0.000000000000     0.00000000     0.00000000
 O      1   0   0    12.008462447158     0.00000000     0.00000000
 C      1   2   0     4.619778431864    62.65683405     0.00000000
 C      3   1   2     2.807471696816    94.76894634     0.55454078
 C      2   1   3     4.597622796989    47.80620968   325.21413221
 C      5   2   1     2.633490486089   146.40743983    23.93467399
 C      3   1   2     4.631470518820   117.04368304   181.63125778
 C      7   3   1     2.631364976557    28.62005393   181.86294815
 C      1   2   3     2.568082300892    91.11752879   358.82103638
 C      4   3   1     2.642227983802   121.32128195   303.83980997
 C      2   1   3     2.598008455344    25.13160873   357.62358330
 C      5   2   1     2.864501315788    92.79710925   207.38625433
 C      7   3   1     2.867578396848   149.46765898   180.23532302
 C      7   3   1     2.634378769936    89.00369679     1.58961403
 C     10   4   3     2.619102139586   120.87841641   181.97373276
 C     14   7   3     2.620086856013   120.98993166   359.02935801
 C     12   5   2     2.847797697566   113.85480854   299.37395535
 C     13   7   3     2.841723031218   113.47099576    64.22100547
 C     17  12   5     2.514160180080   125.10391433   125.32978318
 C     18  13   7     2.509423795999   125.24915382   237.17725666
 H      6   5   2     2.048823479347   118.49306387   182.96001813
 H      8   7   3     2.049233426314   119.05892842   181.57358487
 H     10   4   3     2.045450329510   119.65026787     1.26298381
 H     12   5   2     2.070553971723   110.27601175    62.45690831
 H     12   5   2     2.066615624310   107.97305247   178.37757057
 H     13   7   3     2.068608244531   110.28266479   301.47239594
 H     13   7   3     2.069451489869   108.27184108   185.28854580
 H     14   7   3     2.049188205269   119.74631814   179.44643840
 H     15  10   4     2.045734025969   120.88211196   178.79521234
 H     16  14   7     2.045679843595   121.04192148   181.51124101
 H     17  12   5     2.054207041015   115.67913129   305.82755834
 H     18  13   7     2.055061328355   115.53387676    56.78812821
 H      1   2   3     1.834933365428    32.30215038   134.34358283
 H      2   1   3     1.830775840805   130.85146209   319.86561617
 H     19  17  12     2.046038136268   121.58224627   179.73517964
 H     19  17  12     2.051414996968   121.62453459     1.09306166
 H     20  18  13     2.046693623438   121.64769137   180.21137193
 H     20  18  13     2.050366889260   121.57215162   359.92621143
 H      2   1   3     9.242522753941    74.16575778   212.40225928
 H     39   2   1     4.564064664105    68.76661326   274.94797027
 C     39   2   1     2.062100933503    12.74038024   348.97370108
 O     40  39   2     3.892799826013    81.60022152    65.00579939
 C     42  40  39     2.549799370514   129.59348865   354.14662051
 C     40  39   2     2.055949718412    65.57516610    24.91009898
 O     43  42  40     2.553211241832   110.81871102   341.72444273
 O     43  42  40     2.253561738738   124.73383110   161.22758513
 H     41  39  45     2.055146303878   110.00977390   241.34894601
 H     44  40  39     2.059835555628   110.21051259   224.60148816

--------------------------------------------------------------------------
WARNING: There was an error initializing an OpenFabrics device.

  Local host:   ga01
  Local device: mlx5_0
--------------------------------------------------------------------------
[ga01:945570] *** Process received signal ***
[ga01:945570] Signal: Segmentation fault (11)
[ga01:945570] Signal code: Address not mapped (1)
[ga01:945570] Failing at address: (nil)
[ga01:945570] [ 0] /usr/lib64/libpthread.so.0(+0x12cf0)[0x14a09faddcf0]
[ga01:945570] [ 1] /usr/lib64/libc.so.6(+0xc882c)[0x14a09f7cd82c]
[ga01:945570] [ 2] /home/yongsang/.openmpi/lib/libopen-rte.so.40(+0x2b27d)[0x14a0a0bc827d]
[ga01:945570] [ 3] /home/yongsang/.openmpi/lib/libopen-rte.so.40(orte_show_help_recv+0x147)[0x14a0a0bc86f7]
[ga01:945570] [ 4] /home/yongsang/.openmpi/lib/libopen-rte.so.40(orte_rml_base_process_msg+0x39b)[0x14a0a0c2421b]
[ga01:945570] [ 5] /home/yongsang/.openmpi/lib/libopen-pal.so.40(opal_libevent2022_event_base_loop+0x769)[0x14a0a09125b9]
[ga01:945570] [ 6] mpirun[0x400f39]
[ga01:945570] [ 7] /usr/lib64/libc.so.6(__libc_start_main+0xe5)[0x14a09f73fd85]
[ga01:945570] [ 8] mpirun[0x400cde]
[ga01:945570] *** End of error message ***

ORCA finished by error termination in Startup
Calling Command: mpirun -np 25  /home/yongsang/orca_6_0_1_linux_x86-64_shared_openmpi416/orca_startup_mpi honokiol2-opt_EC_closer.int.tmp honokiol2-opt_EC_closer 
[file orca_tools/qcmsg.cpp, line 394]: 
  .... aborting the run

[file orca_tools/qcmsg.cpp, line 394]: 
  .... aborting the run

