
                                 *****************
                                 * O   R   C   A *
                                 *****************

                                            #,                                       
                                            ###                                      
                                            ####                                     
                                            #####                                    
                                            ######                                   
                                           ########,                                 
                                     ,,################,,,,,                         
                               ,,#################################,,                 
                          ,,##########################################,,             
                       ,#########################################, ''#####,          
                    ,#############################################,,   '####,        
                  ,##################################################,,,,####,       
                ,###########''''           ''''###############################       
              ,#####''   ,,,,##########,,,,          '''####'''          '####       
            ,##' ,,,,###########################,,,                        '##       
           ' ,,###''''                  '''############,,,                           
         ,,##''                                '''############,,,,        ,,,,,,###''
      ,#''                                            '''#######################'''  
     '                                                          ''''####''''         
             ,#######,   #######,   ,#######,      ##                                
            ,#'     '#,  ##    ##  ,#'     '#,    #''#        ,####,   ,####,        
            ##       ##  ##   ,#'  ##            #'  '#       #'       #'  '#        
            ##       ##  #######   ##           ,######,      #####,   #    #        
            '#,     ,#'  ##    ##  '#,     ,#' ,#      #,     #,   #   #,  ,#        
             '#######'   ##     ##  '#######'  #'      '#     '####' # '####'        



                #########################################################
                #                        -***-                          #
                #          Department of theory and spectroscopy        #
                #                                                       #
                #                      Frank Neese                      #
                #                                                       #
                #     Directorship, Architecture, Infrastructure        #
                #                    SHARK, DRIVERS                     #
                #        Core code/Algorithms in most modules           #
                #                                                       #
                #        Max Planck Institute fuer Kohlenforschung      #
                #                Kaiser Wilhelm Platz 1                 #
                #                 D-45470 Muelheim/Ruhr                 #
                #                      Germany                          #
                #                                                       #
                #                  All rights reserved                  #
                #                        -***-                          #
                #########################################################


                         Program Version 6.0.1  -  RELEASE   -


 With contributions from (in alphabetic order):
[Max-Planck-Institut fuer Kohlenforschung]                               
  Daniel Aravena         : Magnetic Suceptibility                        
  Michael Atanasov       : Ab Initio Ligand Field Theory (pilot matlab implementation)
  Alexander A. Auer      : GIAO ZORA, VPT2 properties, NMR spectrum      
  Ute Becker             : All parallelization in ORCA, NUMFREQ, NUMCALC 
  Giovanni Bistoni       : ED, misc. LED, open-shell LED, HFLD           
  Martin Brehm           : Molecular dynamics                            
  Dmytro Bykov           : pre 5.0 version of the SCF Hessian            
  Marcos Casanova-Páez   : Triplet and SCS-CIS(D). UHF-(DLPNO)-IP/EA/STEOM-CCSD. UHF-CVS-IP/STEOM-CCSD   
  Vijay G. Chilkuri      : MRCI spin determinant printing, contributions to CSF-ICE 
  Pauline Colinet        : FMM embedding                                 
  Dipayan Datta          : RHF DLPNO-CCSD density                        
  Achintya Kumar Dutta   : EOM-CC, STEOM-CC                              
  Nicolas Foglia         : Exact transition moments, OPA infrastructure, MCD improvements    
  Dmitry Ganyushin       : Spin-Orbit,Spin-Spin,Magnetic field MRCI      
  Miquel Garcia-Rates    : C-PCM and meta-GGA Hessian, CCSD/C-PCM, Gaussian charge scheme 
  Tiago L. C. Gouveia    : GS-ROHF, GS-ROCIS                             
  Yang Guo               : DLPNO-NEVPT2, F12-NEVPT2, CIM, IAO-localization        
  Andreas Hansen         : Spin unrestricted coupled pair/coupled cluster methods 
  Ingolf Harden          : AUTO-CI MPn and infrastructure                
  Benjamin Helmich-Paris : MC-RPA, TRAH-(SCF,CASSCF), AVAS, COSX integrals, SCF dyn. polar. 
  Lee Huntington         : MR-EOM, pCC                                   
  Robert Izsak           : Overlap fitted RIJCOSX, COSX-SCS-MP3, EOM     
  Riya Kayal             : Wick's Theorem for AUTO-CI, AUTO-CI UHF-CCSDT 
  Emily Kempfer          : AUTO-CI, RHF CISDT and CCSDT                  
  Christian Kollmar      : KDIIS, OOCD, Brueckner-CCSD(T), CCSD density, CASPT2, CASPT2-K, improved NEVPT2 
  Axel Koslowski         : Symmetry handling                             
  Simone Kossmann        : meta-GGA functionals, TD-DFT gradient, OOMP2, (MP2 Hessian; deprecated post 5.0) 
  Lucas Lang             : DCDCAS                                        
  Marvin Lechner         : AUTO-CI (C++ implementation), FIC-MRCC        
  Spencer Leger          : CASSCF response                               
  Dagmar Lenk            : GEPOL surface, SMD, ORCA-2-JSON               
  Dimitrios Liakos       : Extrapolation schemes; Compound Job, initial MDCI parallelization 
  Dimitrios Manganas     : Further ROCIS development; embedding schemes. LFT, Crystal Embedding 
  Dimitrios Pantazis     : SARC Basis sets                               
  Anastasios Papadopoulos: AUTO-CI, single reference methods and gradients 
  Taras Petrenko         : pre 6.0 DFT Hessian and TD-DFT gradient, (ASA, deprecated), ECA, 1-Electron XAS/XES, NRVS 
  Peter Pinski           : DLPNO-MP2, DLPNO-MP2 Gradient                 
  Christoph Reimann      : Effective Core Potentials                     
  Marius Retegan         : Local ZFS, SOC                                
  Christoph Riplinger    : Optimizer, TS searches, QM/MM, DLPNO-CCSD(T), (RO)-DLPNO pert. Triples 
  Michael Roemelt        : Original ROCIS implementation                 
  Masaaki Saitow         : Open-shell DLPNO-CCSD energy and density      
  Barbara Sandhoefer     : DKH picture change effects                    
  Kantharuban Sivalingam : CASSCF convergence/infrastructure, NEVPT2 and variants, FIC-MRCI 
  Bernardo de Souza      : ESD, SOC TD-DFT                               
  Georgi L. Stoychev     : AutoAux, RI-MP2 NMR, DLPNO-MP2 response, X2C  
  Van Anh Tran           : RI-MP2 g-tensors                              
  Willem Van den Heuvel  : Paramagnetic NMR                              
  Zikuan Wang            : NOTCH, Electric field optimization            
  Frank Wennmohs         : Technical directorship and infrastructure     
  Hang Xu                : AUTO-CI-Response properties                   
                                                                         
[FACCTs GmbH]                                                            
  Markus Bursch, Miquel Garcia-Rates, Christoph Riplinger, Bernardo de Souza, Georgi L. Stoychev 
                                                                 
  APM, Basis sets (HGBS, AHGBS, def-TZVP (Ac-Lr), def2-XVPD (La-Lu)), CI-OPT, improved COSX, DLPNO-Multilevel,           
  DOCKER, DRACO, updates on ESD, GOAT, IRC, LR-CPCM, MBIS, meta-GGA TD-DFT gradient, ML-optimized integration grids, 
  MM, NACMEs, nearIR, NEB, NEB-TS, NL-DFT gradient (VV10), 2- and 3-layer-ONIOM, interface openCOSMO-RS, QMMM,   
  Crystal-QMMM, SF, symmetry and pop. for TD-DFT, r2SCAN hybrids, SOLVATOR                                   
                                                                         
[Other institutions]                                                     
  V. Asgeirsson          : NEB                                           
  Christoph Bannwarth    : sTDA-DFT, sTD-DFT, PBEh-3c, B97-3c, D3        
  Sebastian Ehlert       : rSCAN, r2SCAN, r2SCAN-3c, D4, dhf basis sets  
  Marvin Friede          : D4 for Fr, Ra, Ac-Lr                          
  Lars Goerigk           : TD-DFT with DH, B97 family of functionals     
  Stefan Grimme          : VdW corrections, initial TS optimization, DFT functionals, gCP, sTDA/sTD-DF 
  Waldemar Hujo          : DFT-NL                                        
  H. Jonsson             : NEB                                           
  Holger Kruse           : gCP                                           
  Marcel Mueller         : wB97X-3c, vDZP basis set                      
  Hagen Neugebauer       : wr2SCAN                                       
  Tobias Risthaus        : range-separated hybrid DFT                    
  Lukas Wittmann         : regularized MP2, r2SCAN double-hybrids, wr2SCAN        
                                                                         
We gratefully acknowledge several colleagues who have allowed us to      
interface, adapt or use parts of their codes:                            
  Ed Valeev, F. Pavosevic, A. Kumar             : LibInt (2-el integral package), F12 methods 
  Garnet Chan, S. Sharma, J. Yang, R. Olivares  : DMRG                   
  Ulf Ekstrom                                   : XCFun DFT Library      
  Mihaly Kallay                                 : mrcc  (arbitrary order and MRCC methods)
  Frank Weinhold                                : gennbo (NPA and NBO analysis)           
  Simon Mueller                                 : openCOSMO-RS                            
  Christopher J. Cramer and Donald G. Truhlar   : smd solvation model                     
  S Lehtola, MJT Oliveira, MAL Marques          : LibXC Library                           
  Liviu Ungur et al                             : ANISO software                          


 Your calculation uses the libint2 library for the computation of 2-el integrals
 For citations please refer to: http://libint.valeyev.net

 Your ORCA version has been built with support for libXC version: 6.2.2
 For citations please refer to: https://libxc.gitlab.io

 This ORCA versions uses:
   CBLAS   interface :  Fast vector & matrix operations
   LAPACKE interface :  Fast linear algebra routines
   SCALAPACK package :  Parallel linear algebra routines
   Shared memory     :  Shared parallel matrices
   BLAS/LAPACK       :  OpenBLAS 0.3.27  USE64BITINT DYNAMIC_ARCH NO_AFFINITY SkylakeX SINGLE_THREADED
        Core in use  :  SkylakeX
   Copyright (c) 2011-2014, The OpenBLAS Project


NOTE: MaxCore=5000 MB was set to SCF,MP2,MDCI,CIPSI,MRCI and CIS
      => If you want to overwrite this, your respective input block should be placed after the MaxCore statement
Warning: RI is on but no J-basis has been assigned. Assigning Def2/J (nothing to worry about!)
================================================================================

----- Orbital basis set information -----
Your calculation utilizes the basis: def2-TZVP
   F. Weigend and R. Ahlrichs, Phys. Chem. Chem. Phys. 7, 3297 (2005).

----- AuxJ basis set information -----
Your calculation utilizes the auxiliary basis: def2/J
   F. Weigend, Phys. Chem. Chem. Phys. 8, 1057 (2006).

================================================================================
                                        WARNINGS
                       Please study these warnings very carefully!
================================================================================


WARNING: Geometry Optimization
  ===> : Switching off AutoStart
         For restart on a previous wavefunction, please use MOREAD

================================================================================
                                       INPUT FILE
================================================================================
NAME = honokiol2-opt_EC2.inp
|  1> ! OPT B3LYP def2-TZVP TightSCF
|  2> 
|  3> %maxcore 5000
|  4> 
|  5> %pal
|  6> nprocs 25
|  7> end
|  8> 
|  9> * xyz 0 1
| 10> O           1.46224954619142      1.94234318744980      2.24853726002476
| 11>   O          -3.97091791310041     -1.26302149071579      2.09651093415840
| 12>   C           1.21591146035804      0.30293886698119      0.45355641773744
| 13>   C          -0.14737513588776     -0.11675504522815      0.87144207967578
| 14>   C          -2.51915720093688     -0.42688785977378      0.33040695304466
| 15>   C          -1.22446130874119     -0.04354978874471     -0.01598988867094
| 16>   C           3.09333473376127      0.06336083590990     -1.10193925738456
| 17>   C           1.81105903395527     -0.27061339172254     -0.67320562453111
| 18>   C           1.94171834350383      1.27724681205528      1.16419313345394
| 19>   C          -0.39346656632213     -0.62563690451878      2.15004711564239
| 20>   C          -2.72938177054243     -0.91656186468589      1.62795083561869
| 21>   C          -3.66078152021991     -0.26143377752370     -0.65366219237405
| 22>   C           3.70632149030324     -0.60368242285193     -2.31895272695165
| 23>   C           3.79441170869111      1.01643765342367     -0.36466028305597
| 24>   C          -1.66709158197923     -1.02861823647942      2.51967643786603
| 25>   C           3.22819356817099      1.61752279757796      0.74877124677764
| 26>   C          -4.45721048883906     -1.51699075816670     -0.90103810056196
| 27>   C           2.93255580259427     -0.37002006507946     -3.58650860473203
| 28>   C          -5.77896561347465     -1.61210227468210     -0.77605762362475
| 29>   C           2.43704031471370     -1.32221145987133     -4.36816360536569
| 30>   H          -1.05259042283376      0.34968469960138     -1.01156271484384
| 31>   H           1.24952917938246     -1.01905292661249     -1.22094475097750
| 32>   H           0.42078305230848     -0.72058786357960      2.85768032943187
| 33>   H          -4.33613469303818      0.53420032413957     -0.32292074351375
| 34>   H          -3.23428539415962      0.07412760531489     -1.60424191592671
| 35>   H           3.80271148429996     -1.68101740147873     -2.15168045568068
| 36>   H           4.72283786102324     -0.21678479347777     -2.44667621926788
| 37>   H           4.79764974851409      1.29723810553355     -0.66560714980959
| 38>   H          -1.85517766444862     -1.43363127499440      3.50594323921489
| 39>   H           3.76537949369805      2.37100606114776      1.31063374937534
| 40>   H          -3.88755143022741     -2.39239313074895     -1.20438740773260
| 41>   H           2.77788905571678      0.67228042471027     -3.85615122517874
| 42>   H           0.51974996372733      1.77798641516630      2.40601343372632
| 43>   H          -4.57883105527951     -1.40377672485753      1.35428951642568
| 44>   H          -6.30177176467157     -2.53806528433518     -0.98206197211550
| 45>   H          -6.38238676835377     -0.75787976344076     -0.48546508346197
| 46>   H           1.89073349373441     -1.08754836152953     -5.27321067949649
| 47>   H           2.56305308524622     -2.37394879679727     -4.13211802788498
| 48>   H          -5.16901431364492      2.76204519545322      4.29020373134835
| 49>   H          -4.23771206790790      1.20919182734116      5.87716324926676
| 50>   C          -4.58078984821462      1.96741393307265      3.83242830720747
| 51>   O          -2.51539647179017      1.36507221777971      4.76002376609143
| 52>   C          -2.29876020537116      2.19182271357712      3.72419160052121
| 53>   C          -3.91445784173201      1.03235000821223      4.85320384829332
| 54>   O          -3.46096971692836      2.56933740229284      3.15387940220939
| 55>   O          -1.22580312339098      2.56628295245260      3.35229345095389
| 56>   H          -5.18381068869654      1.44044835105403      3.09743597678379
| 57>   H          -4.03381168819741     -0.01904750342243      4.59744230763152
| 58>   O          -5.75272754500291      2.60695995232495      0.45731809596844
| 59>   C          -4.88459556362650      3.42271983586204      0.54113386311490
| 60>   O          -3.71600130519071      3.37009318857127     -0.12979265096224
| 61>   O          -4.94504017138703      4.52402138628079      1.31992633465224
| 62>   C          -2.81995099381171      4.38497203913843      0.35929202446088
| 63>   C          -3.74012125328735      5.29613947702298      1.18333278784279
| 64>   H          -2.05107510359316      3.90619506330108      0.96478110889248
| 65>   H          -3.98731270132427      6.23103757113459      0.67816236939603
| 66>   H          -2.36836465004462      4.88427143039693     -0.49599019594673
| 67>   H          -3.34907614889556      5.50472584143866      2.17705386564295
| 68> *
| 69> 
| 70>                          ****END OF INPUT****
================================================================================

                       *****************************
                       * Geometry Optimization Run *
                       *****************************

Geometry optimization settings:
Update method            Update   .... BFGS
Choice of coordinates    CoordSys .... (2022) Redundant Internals
Initial Hessian          InHess   .... Almloef's Model
Max. no of cycles        MaxIter  .... 174

Convergence Tolerances:
Energy Change            TolE     ....  5.0000e-06 Eh
Max. Gradient            TolMAXG  ....  3.0000e-04 Eh/bohr
RMS Gradient             TolRMSG  ....  1.0000e-04 Eh/bohr
Max. Displacement        TolMAXD  ....  4.0000e-03 bohr
RMS Displacement         TolRMSD  ....  2.0000e-03 bohr
Strict Convergence                .... False

------------------------------------------------------------------------------
                        ORCA OPTIMIZATION COORDINATE SETUP
------------------------------------------------------------------------------

The optimization will be done in redundant internal coordinates (2022)
Making redundant internal coordinates   ...  (2022 redundants) done
Evaluating the initial hessian          ...  (Almloef) done
Evaluating the coordinates              ...  done
Calculating the B-matrix                .... done
Calculating the G-matrix                .... done
Diagonalizing the G-matrix              .... done
Small eigenvalue found = 2.020e-03
Small eigenvalue found = 3.173e-03
Small eigenvalue found = 4.955e-03
Small eigenvalue found = 1.021e-02
Small eigenvalue found = 1.176e-02
Small eigenvalue found = 1.704e-02
Small eigenvalue found = 1.745e-02
Small eigenvalue found = 2.744e-02
The first mode is                       ....  250
The number of degrees of freedom        ....  168

    -----------------------------------------------------------------
                    Redundant Internal Coordinates


    -----------------------------------------------------------------
         Definition                    Initial Value    Approx d2E/dq
    -----------------------------------------------------------------
      1. B(C   3,C   2)                  1.4864         0.438503   
      2. B(C   5,C   4)                  1.3940         0.615731   
      3. B(C   5,C   3)                  1.3975         0.607815   
      4. B(C   7,C   6)                  1.3927         0.618655   
      5. B(C   7,C   2)                  1.3974         0.608017   
      6. B(C   8,O   0)                  1.3594         0.626110   
      7. B(C   8,C   2)                  1.4075         0.585878   
      8. B(C   9,C   3)                  1.3980         0.606742   
      9. B(C  10,C   4)                  1.4027         0.596294   
     10. B(C  10,O   1)                  1.3715         0.598965   
     11. B(C  11,C   4)                  1.5163         0.392901   
     12. B(C  12,C   6)                  1.5172         0.391596   
     13. B(C  13,C   6)                  1.3941         0.615513   
     14. B(C  14,C  10)                  1.3915         0.621429   
     15. B(C  14,C   9)                  1.3861         0.633924   
     16. B(C  15,C  13)                  1.3862         0.633508   
     17. B(C  15,C   8)                  1.3941         0.615564   
     18. B(C  16,C  11)                  1.5073         0.406081   
     19. B(C  17,C  12)                  1.5033         0.412025   
     20. B(C  18,C  16)                  1.3311         0.775862   
     21. B(C  19,C  17)                  1.3279         0.785042   
     22. B(H  20,C   5)                  1.0841         0.367949   
     23. B(H  21,C   7)                  1.0842         0.367851   
     24. B(H  22,C   9)                  1.0829         0.369559   
     25. B(H  23,C  11)                  1.0948         0.353842   
     26. B(H  24,C  11)                  1.0946         0.354094   
     27. B(H  25,C  12)                  1.0945         0.354201   
     28. B(H  26,C  12)                  1.0951         0.353378   
     29. B(H  27,C  13)                  1.0844         0.367597   
     30. B(H  28,C  14)                  1.0827         0.369954   
     31. B(H  29,C  15)                  1.0826         0.370041   
     32. B(H  30,C  16)                  1.0876         0.363296   
     33. B(H  31,C  17)                  1.0877         0.363200   
     34. B(H  32,O   0)                  0.9696         0.501945   
     35. B(H  33,O   1)                  0.9697         0.501807   
     36. B(H  34,C  18)                  1.0831         0.369303   
     37. B(H  35,C  18)                  1.0855         0.366135   
     38. B(H  36,C  19)                  1.0829         0.369644   
     39. B(H  37,C  19)                  1.0852         0.366451   
     40. B(C  40,H  38)                  1.0895         0.360765   
     41. B(C  42,O  41)                  1.3429         0.665290   
     42. B(C  43,O  41)                  1.4411         0.463825   
     43. B(C  43,C  40)                  1.5363         0.364981   
     44. B(C  43,H  39)                  1.0882         0.362440   
     45. B(O  44,C  42)                  1.3485         0.651711   
     46. B(O  44,C  40)                  1.4411         0.463838   
     47. B(O  45,H  32)                  2.1363         0.006906   
     48. B(O  45,C  42)                  1.1957         1.142415   
     49. B(H  46,C  40)                  1.0870         0.364108   
     50. B(H  47,C  43)                  1.0886         0.361929   
     51. B(H  47,H  22)                  4.8335         0.000000   
     52. B(O  48,H  23)                  2.6290         0.001130   
     53. B(O  48,H  46)                  2.9419         0.000358   
     54. B(C  49,O  48)                  1.1942         1.148795   
     55. B(C  49,H  46)                  3.2486         0.000130   
     56. B(C  49,O  44)                  3.0954         0.001064   
     57. B(C  49,H  23)                  3.0645         0.000255   
     58. B(O  50,H  23)                  2.9093         0.000404   
     59. B(O  50,C  49)                  1.3485         0.651693   
     60. B(O  50,O  44)                  3.3895         0.000324   
     61. B(O  51,C  49)                  1.3502         0.647703   
     62. B(O  51,O  44)                  3.0638         0.001071   
     63. B(C  52,O  50)                  1.4395         0.466596   
     64. B(C  52,O  44)                  3.3937         0.000356   
     65. B(C  53,C  52)                  1.5349         0.366882   
     66. B(C  53,O  51)                  1.4376         0.469845   
     67. B(C  53,O  44)                  3.3759         0.000380   
     68. B(H  54,O  45)                  2.8595         0.000485   
     69. B(H  54,C  52)                  1.0895         0.360759   
     70. B(H  54,O  50)                  2.0634         0.009029   
     71. B(H  54,C  42)                  3.2580         0.000125   
     72. B(H  54,O  44)                  2.9270         0.000378   
     73. B(H  55,C  53)                  1.0910         0.358747   
     74. B(H  56,C  52)                  1.0885         0.362148   
     75. B(H  57,C  53)                  1.0881         0.362656   
     76. B(H  57,O  44)                  3.0957         0.000204   
     77. A(C   8,O   0,H  32)          112.9208         0.368502   
     78. A(C  10,O   1,H  33)          110.0406         0.365694   
     79. A(C   7,C   2,C   8)          118.1382         0.428172   
     80. A(C   3,C   2,C   8)          121.7675         0.403987   
     81. A(C   3,C   2,C   7)          120.0942         0.406642   
     82. A(C   5,C   3,C   9)          117.6574         0.430843   
     83. A(C   2,C   3,C   5)          120.9023         0.406618   
     84. A(C   2,C   3,C   9)          121.4245         0.406491   
     85. A(C   5,C   4,C  11)          120.5313         0.399730   
     86. A(C   5,C   4,C  10)          117.7141         0.430500   
     87. A(C  10,C   4,C  11)          121.7087         0.397483   
     88. A(C   4,C   5,H  20)          118.3714         0.353786   
     89. A(C   3,C   5,H  20)          118.6826         0.353011   
     90. A(C   3,C   5,C   4)          122.9309         0.431982   
     91. A(C  12,C   6,C  13)          121.4415         0.399472   
     92. A(C   7,C   6,C  13)          117.6561         0.433330   
     93. A(C   7,C   6,C  12)          120.8977         0.399830   
     94. A(C   6,C   7,H  21)          119.1354         0.354054   
     95. A(C   2,C   7,H  21)          118.0412         0.353015   
     96. A(C   2,C   7,C   6)          122.8148         0.432376   
     97. A(C   2,C   8,C  15)          119.6292         0.429120   
     98. A(O   0,C   8,C  15)          116.3438         0.431430   
     99. A(O   0,C   8,C   2)          124.0224         0.427621   
    100. A(C   3,C   9,H  22)          119.8147         0.353167   
    101. A(C  14,C   9,H  22)          119.4162         0.355800   
    102. A(C   3,C   9,C  14)          120.7634         0.434112   
    103. A(O   1,C  10,C   4)          122.6757         0.425580   
    104. A(C   4,C  10,C  14)          120.4311         0.431213   
    105. A(O   1,C  10,C  14)          116.8595         0.428740   
    106. A(H  23,C  11,H  24)          106.2562         0.289276   
    107. A(C  16,C  11,H  24)          108.5856         0.327894   
    108. A(C   4,C  11,H  24)          107.6805         0.326116   
    109. A(C  16,C  11,H  23)          109.2087         0.327855   
    110. A(C   4,C  11,C  16)          114.4217         0.371792   
    111. A(C   4,C  11,H  23)          110.3466         0.326078   
    112. A(C   6,C  12,C  17)          113.5818         0.372510   
    113. A(H  25,C  12,H  26)          106.4888         0.289230   
    114. A(C   6,C  12,H  26)          108.2555         0.325829   
    115. A(C  17,C  12,H  25)          109.0978         0.328697   
    116. A(C   6,C  12,H  25)          110.2279         0.325954   
    117. A(C  17,C  12,H  26)          108.9355         0.328571   
    118. A(C  15,C  13,H  27)          119.2433         0.355439   
    119. A(C   6,C  13,H  27)          119.7041         0.353707   
    120. A(C   6,C  13,C  15)          121.0523         0.435184   
    121. A(C   9,C  14,H  28)          120.7529         0.355865   
    122. A(C   9,C  14,C  10)          120.4769         0.435986   
    123. A(C  10,C  14,H  28)          118.7701         0.354665   
    124. A(C  13,C  15,H  29)          121.0629         0.355839   
    125. A(C   8,C  15,H  29)          118.2385         0.354109   
    126. A(C   8,C  15,C  13)          120.6938         0.435190   
    127. A(C  11,C  16,C  18)          124.6670         0.418875   
    128. A(C  18,C  16,H  30)          119.2614         0.367206   
    129. A(C  11,C  16,H  30)          116.0714         0.329285   
    130. A(C  12,C  17,C  19)          125.2365         0.420844   
    131. A(C  12,C  17,H  31)          115.5415         0.330062   
    132. A(C  19,C  17,H  31)          119.2212         0.367931   
    133. A(C  16,C  18,H  34)          121.5026         0.368240   
    134. A(C  16,C  18,H  35)          121.3944         0.367696   
    135. A(H  34,C  18,H  35)          117.0880         0.292761   
    136. A(C  17,C  19,H  36)          121.6586         0.369043   
    137. A(C  17,C  19,H  37)          121.5731         0.368494   
    138. A(H  36,C  19,H  37)          116.7680         0.292843   
    139. A(O   0,H  32,O  45)          143.4797         0.175858   
    140. A(H  38,C  40,C  43)          113.5096         0.323180   
    141. A(O  44,C  40,H  46)          108.3727         0.334714   
    142. A(H  38,C  40,H  46)          109.7659         0.291430   
    143. A(C  43,C  40,H  46)          113.2543         0.323670   
    144. A(C  43,C  40,O  44)          103.2995         0.373253   
    145. A(H  38,C  40,O  44)          108.2244         0.334201   
    146. A(C  42,O  41,C  43)          110.4034         0.411945   
    147. A(O  44,C  42,O  45)          123.6519         0.483190   
    148. A(O  41,C  42,O  45)          125.2718         0.485035   
    149. A(O  41,C  42,O  44)          111.0712         0.437786   
    150. A(H  39,C  43,O  41)          108.1618         0.334457   
    151. A(O  41,C  43,H  47)          108.3147         0.334379   
    152. A(C  40,C  43,H  47)          112.5922         0.323351   
    153. A(H  39,C  43,H  47)          110.2089         0.291367   
    154. A(C  40,C  43,O  41)          103.7438         0.373251   
    155. A(H  39,C  43,C  40)          113.4183         0.323426   
    156. A(C  42,O  44,C  52)          109.5872         0.152388   
    157. A(C  40,O  44,C  52)          139.2860         0.147692   
    158. A(C  49,O  44,O  50)           23.4426         0.103395   
    159. A(O  50,O  44,O  51)           39.9080         0.103294   
    160. A(C  42,O  44,O  50)          122.7309         0.150521   
    161. A(C  40,O  44,O  50)          119.7598         0.145963   
    162. A(C  49,O  44,C  53)           41.1123         0.104054   
    163. A(O  51,O  44,C  53)           25.2035         0.103947   
    164. A(C  42,O  44,C  53)          122.9737         0.153335   
    165. A(C  40,O  44,C  53)          123.2280         0.148569   
    166. A(C  49,O  44,O  51)           25.3195         0.107873   
    167. A(C  42,O  44,C  49)          146.1534         0.170232   
    168. A(C  40,O  44,C  49)           98.9289         0.164214   
    169. A(C  42,O  44,O  51)          148.1285         0.169659   
    170. A(C  40,O  44,O  51)           99.9002         0.163684   
    171. A(O  50,O  44,C  53)           40.3117         0.100401   
    172. A(C  40,O  44,C  42)          110.7103         0.410443   
    173. A(O  50,O  44,C  52)           24.5039         0.100233   
    174. A(C  52,O  44,C  53)           26.2086         0.100747   
    175. A(C  49,O  44,C  52)           40.9140         0.103832   
    176. A(O  51,O  44,C  52)           42.0330         0.103727   
    177. A(H  32,O  45,C  42)          139.0607         0.210392   
    178. A(O  44,C  49,O  51)           76.0308         0.170119   
    179. A(O  44,C  49,O  50)           90.6096         0.170231   
    180. A(O  44,C  49,O  48)          101.8443         0.181352   
    181. A(O  50,C  49,O  51)          110.9527         0.435675   
    182. A(O  48,C  49,O  51)          124.4100         0.483137   
    183. A(O  48,C  49,O  50)          124.6371         0.483685   
    184. A(O  44,O  50,C  52)           77.9109         0.146040   
    185. A(O  44,O  50,C  49)           65.9478         0.150521   
    186. A(C  49,O  50,C  52)          110.0518         0.410873   
    187. A(O  44,O  51,C  53)           89.6301         0.163901   
    188. A(O  44,O  51,C  49)           78.6497         0.169546   
    189. A(C  49,O  51,C  53)          110.2281         0.410931   
    190. A(O  44,C  52,C  53)           76.2473         0.145120   
    191. A(O  44,C  52,O  50)           77.5852         0.147771   
    192. A(H  54,C  52,H  56)          110.2115         0.291182   
    193. A(C  53,C  52,H  56)          113.4697         0.323659   
    194. A(O  50,C  52,H  56)          108.3424         0.334743   
    195. A(C  53,C  52,H  54)          112.6794         0.323455   
    196. A(O  50,C  52,H  54)          108.5599         0.334530   
    197. A(O  50,C  52,C  53)          103.1652         0.373969   
    198. A(O  44,C  52,H  56)          166.1300         0.137395   
    199. A(O  44,C  52,H  54)           55.9826         0.137353   
    200. A(O  44,C  53,H  57)           65.9224         0.138133   
    201. A(O  44,C  53,H  55)          168.8599         0.138013   
    202. A(O  44,C  53,C  52)           77.5441         0.145958   
    203. A(O  44,C  53,O  51)           65.1664         0.148742   
    204. A(H  55,C  53,H  57)          109.8787         0.290991   
    205. A(C  52,C  53,H  57)          112.8708         0.323733   
    206. A(O  51,C  53,H  57)          108.5064         0.335208   
    207. A(C  52,C  53,H  55)          113.3235         0.323158   
    208. A(O  51,C  53,H  55)          108.3204         0.334604   
    209. A(O  51,C  53,C  52)          103.5706         0.374417   
    210. D(C   9,C   3,C   2,C   7)    122.9535         0.013123   
    211. D(C   5,C   3,C   2,C   8)    124.3296         0.013123   
    212. D(C   9,C   3,C   2,C   8)    -57.1522         0.013123   
    213. D(C   5,C   3,C   2,C   7)    -55.5647         0.013123   
    214. D(H  20,C   5,C   3,C   2)     -1.5070         0.025505   
    215. D(H  20,C   5,C   4,C  11)     -1.5648         0.026213   
    216. D(C   4,C   5,C   3,C   9)      1.3575         0.025505   
    217. D(H  20,C   5,C   3,C   9)    179.9206         0.025505   
    218. D(H  20,C   5,C   4,C  10)   -179.1432         0.026213   
    219. D(C   3,C   5,C   4,C  11)    177.0026         0.026213   
    220. D(C   3,C   5,C   4,C  10)     -0.5758         0.026213   
    221. D(C   4,C   5,C   3,C   2)    179.9299         0.025505   
    222. D(H  21,C   7,C   2,C   3)      0.0564         0.025523   
    223. D(C   2,C   7,C   6,C  13)     -0.2508         0.026477   
    224. D(C   2,C   7,C   6,C  12)    178.9772         0.026477   
    225. D(H  21,C   7,C   6,C  13)   -179.1673         0.026477   
    226. D(H  21,C   7,C   6,C  12)      0.0608         0.026477   
    227. D(C   6,C   7,C   2,C   3)   -178.8712         0.025523   
    228. D(C   6,C   7,C   2,C   8)      1.2307         0.025523   
    229. D(H  21,C   7,C   2,C   8)   -179.8416         0.025523   
    230. D(O   0,C   8,C   2,C   7)    177.7714         0.023605   
    231. D(C  15,C   8,O   0,H  32)    170.4664         0.028802   
    232. D(C  15,C   8,C   2,C   7)     -1.4162         0.023605   
    233. D(C   2,C   8,O   0,H  32)     -8.7455         0.028802   
    234. D(C  15,C   8,C   2,C   3)    178.6875         0.023605   
    235. D(O   0,C   8,C   2,C   3)     -2.1249         0.023605   
    236. D(H  22,C   9,C   3,C   5)    178.5061         0.025410   
    237. D(C  14,C   9,C   3,C   2)   -179.1826         0.025410   
    238. D(C  14,C   9,C   3,C   5)     -0.6180         0.025410   
    239. D(H  22,C   9,C   3,C   2)     -0.0585         0.025410   
    240. D(C   4,C  10,O   1,H  33)     18.8353         0.026196   
    241. D(C  14,C  10,C   4,C   5)     -0.9603         0.024496   
    242. D(C  14,C  10,C   4,C  11)   -178.5084         0.024496   
    243. D(O   1,C  10,C   4,C  11)     -0.6877         0.024496   
    244. D(O   1,C  10,C   4,C   5)    176.8604         0.024496   
    245. D(C  14,C  10,O   1,H  33)   -163.2710         0.026196   
    246. D(C  16,C  11,C   4,C  10)    -55.7932         0.011476   
    247. D(C  16,C  11,C   4,C   5)    126.7268         0.011476   
    248. D(H  23,C  11,C   4,C   5)   -109.6469         0.011476   
    249. D(H  24,C  11,C   4,C   5)      5.9205         0.011476   
    250. D(H  23,C  11,C   4,C  10)     67.8331         0.011476   
    251. D(H  26,C  12,C   6,C   7)   -177.9824         0.011404   
    252. D(H  25,C  12,C   6,C  13)    117.3240         0.011404   
    253. D(C  17,C  12,C   6,C   7)     60.8981         0.011404   
    254. D(C  17,C  12,C   6,C  13)   -119.9034         0.011404   
    255. D(H  25,C  12,C   6,C   7)    -61.8746         0.011404   
    256. D(C  15,C  13,C   6,C   7)     -0.5524         0.026193   
    257. D(H  27,C  13,C   6,C   7)    179.6542         0.026193   
    258. D(C  15,C  13,C   6,C  12)   -179.7760         0.026193   
    259. D(H  27,C  13,C   6,C  12)      0.4306         0.026193   
    260. D(C   9,C  14,C  10,C   4)      1.6837         0.026730   
    261. D(C   9,C  14,C  10,O   1)   -176.2601         0.026730   
    262. D(H  28,C  14,C   9,H  22)      0.1416         0.027885   
    263. D(H  28,C  14,C   9,C   3)    179.2692         0.027885   
    264. D(C  10,C  14,C   9,H  22)   -179.9972         0.027885   
    265. D(H  28,C  14,C  10,O   1)      3.6038         0.026730   
    266. D(H  28,C  14,C  10,C   4)   -178.4524         0.026730   
    267. D(C  10,C  14,C   9,C   3)     -0.8696         0.027885   
    268. D(C   8,C  15,C  13,C   6)      0.3421         0.027846   
    269. D(H  29,C  15,C   8,C   2)    179.8864         0.026198   
    270. D(H  29,C  15,C   8,O   0)      0.6378         0.026198   
    271. D(C  13,C  15,C   8,C   2)      0.6695         0.026198   
    272. D(C  13,C  15,C   8,O   0)   -178.5790         0.026198   
    273. D(H  29,C  15,C  13,H  27)      0.9418         0.027846   
    274. D(H  29,C  15,C  13,C   6)   -178.8525         0.027846   
    275. D(C   8,C  15,C  13,H  27)   -179.8636         0.027846   
    276. D(H  30,C  16,C  11,H  23)   -178.0487         0.012222   
    277. D(H  30,C  16,C  11,C   4)    -53.8142         0.012222   
    278. D(C  18,C  16,C  11,H  24)   -113.3578         0.012222   
    279. D(C  18,C  16,C  11,H  23)      2.1034         0.012222   
    280. D(C  18,C  16,C  11,C   4)    126.3379         0.012222   
    281. D(H  31,C  17,C  12,H  25)   -179.7754         0.012569   
    282. D(H  31,C  17,C  12,C   6)     56.8321         0.012569   
    283. D(C  19,C  17,C  12,C   6)   -122.8349         0.012569   
    284. D(C  19,C  17,C  12,H  26)    116.4274         0.012569   
    285. D(C  19,C  17,C  12,H  25)      0.5576         0.012569   
    286. D(H  35,C  18,C  16,H  30)   -179.3568         0.043220   
    287. D(H  35,C  18,C  16,C  11)      0.4865         0.043220   
    288. D(H  34,C  18,C  16,H  30)     -0.8088         0.043220   
    289. D(H  34,C  18,C  16,C  11)    179.0346         0.043220   
    290. D(H  37,C  19,C  17,H  31)   -179.5928         0.044356   
    291. D(H  37,C  19,C  17,C  12)      0.0629         0.044356   
    292. D(H  36,C  19,C  17,C  12)   -179.7333         0.044356   
    293. D(H  36,C  19,C  17,H  31)      0.6109         0.044356   
    294. D(O  45,H  32,O   0,C   8)   -158.2360         0.278179   
    295. D(O  45,C  42,O  41,C  43)   -174.9657         0.036272   
    296. D(O  44,C  42,O  41,C  43)      5.8321         0.036272   
    297. D(H  47,C  43,O  41,C  42)    111.1821         0.016951   
    298. D(H  39,C  43,O  41,C  42)   -129.3762         0.016951   
    299. D(O  41,C  43,C  40,H  46)    125.0862         0.010667   
    300. D(O  41,C  43,C  40,O  44)      8.0791         0.010667   
    301. D(H  39,C  43,C  40,H  38)      8.2303         0.010667   
    302. D(H  39,C  43,C  40,O  44)    125.1844         0.010667   
    303. D(C  40,C  43,O  41,C  42)     -8.6562         0.016951   
    304. D(H  39,C  43,C  40,H  46)   -117.8085         0.010667   
    305. D(O  41,C  43,C  40,H  38)   -108.8750         0.010667   
    306. D(C  52,O  44,C  42,O  41)   -174.1014         0.053053   
    307. D(O  50,O  44,C  42,O  45)     29.8408         0.053053   
    308. D(O  50,O  44,C  42,O  41)   -150.9416         0.053053   
    309. D(C  53,O  44,C  42,O  45)    -18.5897         0.053053   
    310. D(C  53,O  44,C  42,O  41)    160.6278         0.053053   
    311. D(C  49,O  44,C  42,O  45)     31.2409         0.053053   
    312. D(C  49,O  44,C  42,O  41)   -149.5415         0.053053   
    313. D(O  51,O  44,C  42,O  41)    162.9416         0.053053   
    314. D(C  40,O  44,C  42,O  45)   -179.2529         0.053053   
    315. D(C  40,O  44,C  42,O  41)     -0.0354         0.053053   
    316. D(C  53,O  44,C  40,C  43)   -165.8195         0.025510   
    317. D(C  53,O  44,C  40,H  38)    -45.1974         0.025510   
    318. D(C  49,O  44,C  40,H  46)     37.7636         0.025510   
    319. D(O  51,O  44,C  42,O  45)    -16.2759         0.053053   
    320. D(C  49,O  44,C  40,C  43)    158.1609         0.025510   
    321. D(O  51,O  44,C  40,H  38)    -55.5646         0.025510   
    322. D(C  42,O  44,C  40,H  46)   -125.6118         0.025510   
    323. D(C  42,O  44,C  40,C  43)     -5.2146         0.025510   
    324. D(C  42,O  44,C  40,H  38)    115.4075         0.025510   
    325. D(C  49,O  44,C  40,H  38)    -81.2171         0.025510   
    326. D(O  51,O  44,C  40,H  46)     63.4161         0.025510   
    327. D(O  51,O  44,C  40,C  43)   -176.1866         0.025510   
    328. D(H  32,O  45,C  42,O  44)   -111.6872         0.134939   
    329. D(H  32,O  45,C  42,O  41)     69.2071         0.134939   
    330. D(C  42,O  45,H  32,O   0)   -161.0294         0.001525   
    331. D(O  48,C  49,O  44,C  52)    159.4217         0.001500   
    332. D(O  48,C  49,O  44,O  50)    125.6622         0.001500   
    333. D(O  48,C  49,O  44,C  53)   -160.1554         0.001500   
    334. D(O  48,C  49,O  44,O  51)   -122.8767         0.001500   
    335. D(O  48,C  49,O  44,C  42)    122.7007         0.001500   
    336. D(O  48,C  49,O  44,C  40)    -28.5827         0.001500   
    337. D(O  51,C  49,O  44,C  42)   -114.4226         0.001500   
    338. D(O  51,C  49,O  44,C  40)     94.2940         0.001500   
    339. D(O  50,C  49,O  44,C  52)     33.7595         0.001500   
    340. D(O  50,C  49,O  44,C  53)     74.1823         0.001500   
    341. D(O  50,C  49,O  44,O  51)    111.4611         0.001500   
    342. D(O  50,C  49,O  44,C  42)     -2.9615         0.001500   
    343. D(O  50,C  49,O  44,C  40)   -154.2449         0.001500   
    344. D(O  44,O  50,C  49,O  51)     75.2600         0.048367   
    345. D(O  44,O  50,C  49,O  48)   -104.8821         0.048367   
    346. D(C  52,O  50,C  49,O  44)    -65.9803         0.048367   
    347. D(C  52,O  50,C  49,O  51)      9.2796         0.048367   
    348. D(C  52,O  50,C  49,O  48)   -170.8624         0.048367   
    349. D(C  52,O  50,O  44,C  53)     40.7297         0.001500   
    350. D(C  52,O  50,O  44,C  49)    118.6580         0.001500   
    351. D(C  52,O  50,O  44,O  51)     80.3135         0.001500   
    352. D(C  52,O  50,O  44,C  42)    -63.3023         0.001500   
    353. D(C  52,O  50,O  44,C  40)    148.2931         0.001500   
    354. D(C  49,O  50,O  44,C  52)   -118.6580         0.001500   
    355. D(C  49,O  50,O  44,C  53)    -77.9283         0.001500   
    356. D(C  49,O  50,O  44,O  51)    -38.3446         0.001500   
    357. D(C  49,O  50,O  44,C  42)    178.0397         0.001500   
    358. D(C  49,O  50,O  44,C  40)     29.6351         0.001500   
    359. D(O  44,O  51,C  49,O  50)    -85.2094         0.042722   
    360. D(O  44,O  51,C  49,O  48)     94.9323         0.042722   
    361. D(C  53,O  51,C  49,O  44)     85.3549         0.042722   
    362. D(C  53,O  51,C  49,O  50)      0.1455         0.042722   
    363. D(C  53,O  51,C  49,O  48)   -179.7129         0.042722   
    364. D(C  53,O  51,O  44,C  52)    -37.8482         0.001500   
    365. D(C  53,O  51,O  44,O  50)    -75.4822         0.001500   
    366. D(C  53,O  51,O  44,C  49)   -110.7296         0.001500   
    367. D(C  53,O  51,O  44,C  42)     -4.5620         0.001500   
    368. D(C  53,O  51,O  44,C  40)    159.2985         0.001500   
    369. D(C  49,O  51,O  44,C  52)     72.8814         0.001500   
    370. D(C  49,O  51,O  44,O  50)     35.2475         0.001500   
    371. D(C  49,O  51,O  44,C  53)    110.7296         0.001500   
    372. D(C  49,O  51,O  44,C  42)    106.1677         0.001500   
    373. D(C  49,O  51,O  44,C  40)    -89.9718         0.001500   
    374. D(H  56,C  52,O  50,O  44)    166.9857         0.022449   
    375. D(H  56,C  52,O  50,C  49)   -134.4731         0.022449   
    376. D(H  54,C  52,O  50,O  44)     47.2985         0.022449   
    377. D(H  54,C  52,O  50,C  49)    105.8397         0.022449   
    378. D(C  53,C  52,O  50,O  44)    -72.4532         0.022449   
    379. D(C  53,C  52,O  50,C  49)    -13.9119         0.022449   
    380. D(H  54,C  52,O  44,C  42)      4.2839         0.001500   
    381. D(H  54,C  52,O  44,C  40)   -167.1906         0.001500   
    382. D(C  53,C  52,O  44,O  50)    107.0960         0.001500   
    383. D(C  53,C  52,O  44,C  49)     74.8855         0.001500   
    384. D(C  53,C  52,O  44,O  51)     36.2715         0.001500   
    385. D(C  53,C  52,O  44,C  42)   -125.8147         0.001500   
    386. D(C  53,C  52,O  44,C  40)     62.7109         0.001500   
    387. D(O  50,C  52,O  44,C  53)   -107.0960         0.001500   
    388. D(O  50,C  52,O  44,C  49)    -32.2105         0.001500   
    389. D(O  50,C  52,O  44,O  51)    -70.8246         0.001500   
    390. D(O  50,C  52,O  44,C  42)    127.0893         0.001500   
    391. D(O  44,C  52,O  50,C  49)     58.5412         0.022449   
    392. D(O  50,C  52,O  44,C  40)    -44.3851         0.001500   
    393. D(H  55,C  53,C  52,O  44)   -177.4214         0.012029   
    394. D(H  55,C  53,C  52,H  56)     13.0403         0.012029   
    395. D(H  55,C  53,C  52,O  50)   -103.9537         0.012029   
    396. D(O  51,C  53,C  52,O  44)    -60.2788         0.012029   
    397. D(O  51,C  53,C  52,H  56)    130.1829         0.012029   
    398. D(O  51,C  53,C  52,O  50)     13.1889         0.012029   
    399. D(H  57,C  53,O  51,O  44)    -51.0268         0.020234   
    400. D(H  57,C  53,O  51,C  49)   -128.7798         0.020234   
    401. D(H  55,C  53,O  51,C  49)    111.9751         0.020234   
    402. D(C  52,C  53,O  51,O  44)     69.1331         0.020234   
    403. D(C  52,C  53,O  51,C  49)     -8.6198         0.020234   
    404. D(H  55,C  53,O  44,C  42)   -126.7474         0.001500   
    405. D(H  55,C  53,O  44,C  40)     31.5208         0.001500   
    406. D(C  52,C  53,O  44,O  50)    -37.7901         0.001500   
    407. D(H  55,C  53,O  51,O  44)   -170.2720         0.020234   
    408. D(C  52,C  53,O  44,C  49)    -74.0644         0.001500   
    409. D(C  52,C  53,O  44,O  51)   -111.5311         0.001500   
    410. D(C  52,C  53,O  44,C  42)     65.5995         0.001500   
    411. D(O  51,C  53,C  52,H  54)   -103.6850         0.012029   
    412. D(C  52,C  53,O  44,C  40)   -136.1324         0.001500   
    413. D(O  51,C  53,O  44,C  52)    111.5311         0.001500   
    414. D(O  51,C  53,O  44,O  50)     73.7410         0.001500   
    415. D(H  55,C  53,C  52,H  54)    139.1725         0.012029   
    416. D(O  51,C  53,O  44,C  49)     37.4666         0.001500   
    417. D(O  51,C  53,O  44,C  42)    177.1305         0.001500   
    418. D(O  51,C  53,O  44,C  40)    -24.6013         0.001500   
    -----------------------------------------------------------------

Number of atoms                         .... 58
Number of degrees of freedom            .... 418


         *************************************************************
         *                GEOMETRY OPTIMIZATION CYCLE   1            *
         *************************************************************
---------------------------------
CARTESIAN COORDINATES (ANGSTROEM)
---------------------------------
  O      1.462250    1.942343    2.248537
  O     -3.970918   -1.263021    2.096511
  C      1.215911    0.302939    0.453556
  C     -0.147375   -0.116755    0.871442
  C     -2.519157   -0.426888    0.330407
  C     -1.224461   -0.043550   -0.015990
  C      3.093335    0.063361   -1.101939
  C      1.811059   -0.270613   -0.673206
  C      1.941718    1.277247    1.164193
  C     -0.393467   -0.625637    2.150047
  C     -2.729382   -0.916562    1.627951
  C     -3.660782   -0.261434   -0.653662
  C      3.706321   -0.603682   -2.318953
  C      3.794412    1.016438   -0.364660
  C     -1.667092   -1.028618    2.519676
  C      3.228194    1.617523    0.748771
  C     -4.457210   -1.516991   -0.901038
  C      2.932556   -0.370020   -3.586509
  C     -5.778966   -1.612102   -0.776058
  C      2.437040   -1.322211   -4.368164
  H     -1.052590    0.349685   -1.011563
  H      1.249529   -1.019053   -1.220945
  H      0.420783   -0.720588    2.857680
  H     -4.336135    0.534200   -0.322921
  H     -3.234285    0.074128   -1.604242
  H      3.802711   -1.681017   -2.151680
  H      4.722838   -0.216785   -2.446676
  H      4.797650    1.297238   -0.665607
  H     -1.855178   -1.433631    3.505943
  H      3.765379    2.371006    1.310634
  H     -3.887551   -2.392393   -1.204387
  H      2.777889    0.672280   -3.856151
  H      0.519750    1.777986    2.406013
  H     -4.578831   -1.403777    1.354290
  H     -6.301772   -2.538065   -0.982062
  H     -6.382387   -0.757880   -0.485465
  H      1.890733   -1.087548   -5.273211
  H      2.563053   -2.373949   -4.132118
  H     -5.169014    2.762045    4.290204
  H     -4.237712    1.209192    5.877163
  C     -4.580790    1.967414    3.832428
  O     -2.515396    1.365072    4.760024
  C     -2.298760    2.191823    3.724192
  C     -3.914458    1.032350    4.853204
  O     -3.460970    2.569337    3.153879
  O     -1.225803    2.566283    3.352293
  H     -5.183811    1.440448    3.097436
  H     -4.033812   -0.019048    4.597442
  O     -5.752728    2.606960    0.457318
  C     -4.884596    3.422720    0.541134
  O     -3.716001    3.370093   -0.129793
  O     -4.945040    4.524021    1.319926
  C     -2.819951    4.384972    0.359292
  C     -3.740121    5.296139    1.183333
  H     -2.051075    3.906195    0.964781
  H     -3.987313    6.231038    0.678162
  H     -2.368365    4.884271   -0.495990
  H     -3.349076    5.504726    2.177054

----------------------------
CARTESIAN COORDINATES (A.U.)
----------------------------
  NO LB      ZA    FRAG     MASS         X           Y           Z
   0 O     8.0000    0    15.999    2.763251    3.670497    4.249120
   1 O     8.0000    0    15.999   -7.503947   -2.386765    3.961832
   2 C     6.0000    0    12.011    2.297740    0.572471    0.857097
   3 C     6.0000    0    12.011   -0.278499   -0.220635    1.646787
   4 C     6.0000    0    12.011   -4.760517   -0.806701    0.624379
   5 C     6.0000    0    12.011   -2.313897   -0.082297   -0.030217
   6 C     6.0000    0    12.011    5.845555    0.119735   -2.082363
   7 C     6.0000    0    12.011    3.422406   -0.511385   -1.272174
   8 C     6.0000    0    12.011    3.669316    2.413647    2.200006
   9 C     6.0000    0    12.011   -0.743544   -1.182282    4.063000
  10 C     6.0000    0    12.011   -5.157784   -1.732051    3.076381
  11 C     6.0000    0    12.011   -6.917875   -0.494038   -1.235243
  12 C     6.0000    0    12.011    7.003933   -1.140794   -4.382186
  13 C     6.0000    0    12.011    7.170399    1.920789   -0.689108
  14 C     6.0000    0    12.011   -3.150347   -1.943807    4.761498
  15 C     6.0000    0    12.011    6.100402    3.056675    1.414973
  16 C     6.0000    0    12.011   -8.422907   -2.866697   -1.702715
  17 C     6.0000    0    12.011    5.541727   -0.699237   -6.777519
  18 C     6.0000    0    12.011  -10.920662   -3.046432   -1.466536
  19 C     6.0000    0    12.011    4.605339   -2.498618   -8.254633
  20 H     1.0000    0     1.008   -1.989108    0.660808   -1.911576
  21 H     1.0000    0     1.008    2.361268   -1.925731   -2.307251
  22 H     1.0000    0     1.008    0.795165   -1.361714    5.400233
  23 H     1.0000    0     1.008   -8.194107    1.009492   -0.610232
  24 H     1.0000    0     1.008   -6.111914    0.140081   -3.031578
  25 H     1.0000    0     1.008    7.186083   -3.176663   -4.066087
  26 H     1.0000    0     1.008    8.924870   -0.409664   -4.623548
  27 H     1.0000    0     1.008    9.066244    2.451425   -1.257815
  28 H     1.0000    0     1.008   -3.505778   -2.709170    6.625273
  29 H     1.0000    0     1.008    7.115536    4.480552    2.476739
  30 H     1.0000    0     1.008   -7.346408   -4.520968   -2.275962
  31 H     1.0000    0     1.008    5.249450    1.270426   -7.287070
  32 H     1.0000    0     1.008    0.982185    3.359907    4.546706
  33 H     1.0000    0     1.008   -8.652737   -2.652754    2.559236
  34 H     1.0000    0     1.008  -11.908623   -4.796248   -1.855828
  35 H     1.0000    0     1.008  -12.060963   -1.432185   -0.917396
  36 H     1.0000    0     1.008    3.572968   -2.055169   -9.964924
  37 H     1.0000    0     1.008    4.843468   -4.486113   -7.808571
  38 H     1.0000    0     1.008   -9.768021    5.219509    8.107310
  39 H     1.0000    0     1.008   -8.008115    2.285041   11.106229
  40 C     6.0000    0    12.011   -8.656438    3.717874    7.242240
  41 O     8.0000    0    15.999   -4.753410    2.579613    8.995141
  42 C     6.0000    0    12.011   -4.344027    4.141945    7.037702
  43 C     6.0000    0    12.011   -7.397253    1.950859    9.171226
  44 O     8.0000    0    15.999   -6.540285    4.855344    5.959968
  45 O     8.0000    0    15.999   -2.316432    4.849572    6.334917
  46 H     1.0000    0     1.008   -9.795983    2.722053    5.853306
  47 H     1.0000    0     1.008   -7.622799   -0.035995    8.687907
  48 O     8.0000    0    15.999  -10.871080    4.926440    0.864206
  49 C     6.0000    0    12.011   -9.230548    6.468003    1.022595
  50 O     8.0000    0    15.999   -7.022225    6.368553   -0.245273
  51 O     8.0000    0    15.999   -9.344772    8.549161    2.494299
  52 C     6.0000    0    12.011   -5.328935    8.286396    0.678964
  53 C     6.0000    0    12.011   -7.067805   10.008253    2.236175
  54 H     1.0000    0     1.008   -3.875970    7.381639    1.823172
  55 H     1.0000    0     1.008   -7.534929   11.774955    1.281541
  56 H     1.0000    0     1.008   -4.475561    9.229935   -0.937286
  57 H     1.0000    0     1.008   -6.328837   10.402424    4.114036

--------------------------------
INTERNAL COORDINATES (ANGSTROEM)
--------------------------------
 O      0   0   0     0.000000000000     0.00000000     0.00000000
 O      1   0   0     6.310054149094     0.00000000     0.00000000
 C      1   2   0     2.443416706721    63.55542013     0.00000000
 C      3   1   2     1.486378737033    94.32325218     0.09649309
 C      2   1   3     2.434307270309    47.89439105   324.52713998
 C      5   2   1     1.393978587325   145.95926675    24.53443423
 C      3   1   2     2.449833173057   117.05156396   180.06589960
 C      7   3   1     1.392688867973    28.64544218   181.93466445
 C      1   2   3     1.359428446439    92.05974246   359.08854319
 C      4   3   1     1.397981608194   121.42445323   301.86535627
 C      2   1   3     1.371493649891    25.90276541   357.67466743
 C      5   2   1     1.516269508589    93.40063897   208.91720656
 C      7   3   1     1.517175420926   149.53578127   180.20349080
 C      7   3   1     1.394074829715    89.01094074     1.71245444
 C     10   4   3     1.386052116720   120.76335024   180.81742255
 C     14   7   3     1.386230898806   121.05229341   359.32735080
 C     12   5   2     1.507288052646   114.42172461   303.88010745
 C     13   7   3     1.503332744342   113.58184478    61.86510808
 C     17  12   5     1.331053315870   124.66701703   126.33793915
 C     18  13   7     1.327851117807   125.23645434   237.16506122
 H      6   5   2     1.084130165829   118.37140545   183.51619069
 H      8   7   3     1.084202778821   119.13543544   181.08357501
 H     10   4   3     1.082941776516   119.81470880   359.94151254
 H     12   5   2     1.094771865623   110.34658234    67.50637099
 H     12   5   2     1.094578548130   107.68048450   183.07377210
 H     13   7   3     1.094496094032   110.22793914   299.09246057
 H     13   7   3     1.095129489169   108.25552128   182.98462334
 H     14   7   3     1.084391292413   119.70408520   179.53398130
 H     15  10   4     1.082651439397   120.75287765   179.26919571
 H     16  14   7     1.082587280033   121.06294625   181.14754306
 H     17  12   5     1.087594390911   116.07142395   306.18578842
 H     18  13   7     1.087666886674   115.54153705    56.83205989
 H      1   2   3     0.969596491755    23.19569102   153.97964876
 H      2   1   3     0.969671623445   129.19658787   309.50961746
 H     19  17  12     1.083130443932   121.50263213   179.03456462
 H     19  17  12     1.085475570091   121.39436978     0.48650379
 H     20  18  13     1.082879549518   121.65864135   180.26665229
 H     20  18  13     1.085241060258   121.57310885     0.06289915
 H      2   1   3     4.738025422214    76.99913207   205.95291360
 H     39   2   1     2.407720491935    70.09022054   276.13557879
 C     39   2   1     1.089497684179    18.07191551   350.51234738
 O     40  39   2     2.058803131342    85.24494316    62.91131069
 C     42  40  39     1.342905778325   126.87746332     5.63835163
 C     40  39   2     1.088236729106    66.39181848    24.30254526
 O     43  42  40     1.348519296300   111.07120627   336.79743890
 O     43  42  40     1.195728064370   125.27183674   155.99963665
 H     41  39   2     1.086986929300   109.76586398    25.66357395
 H     44  40  39     1.088621161754   110.20885524   229.01465435
 O     24  12   5     2.629037928808   174.29005331    59.84408627
 C     49  24  12     1.194212044613    99.65347423   354.64986036
 O     50  49  24     1.348526785847   124.63710450    24.05722503
 O     50  49  24     1.350198640677   124.41002430   203.89639579
 C     51  50  49     1.439475273002   110.05183975   189.13756440
 C     52  50  49     1.437586081692   110.22808755   180.28714733
 H     53  51  50     1.089501977289   108.55987147   105.83972829
 H     54  52  50     1.091024843910   108.32039756   111.97506624
 H     53  51  50     1.088456606638   108.34243758   225.52690941
 H     54  52  50     1.088074503678   108.50644584   231.22022027

---------------------------
INTERNAL COORDINATES (A.U.)
---------------------------
 O      0   0   0     0.000000000000     0.00000000     0.00000000
 O      1   0   0    11.924274232001     0.00000000     0.00000000
 C      1   2   0     4.617388406750    63.55542013     0.00000000
 C      3   1   2     2.808848744275    94.32325218     0.09649309
 C      2   1   3     4.600174066698    47.89439105   324.52713998
 C      5   2   1     2.634237766594   145.95926675    24.53443423
 C      3   1   2     4.629513770873   117.05156396   180.06589960
 C      7   3   1     2.631800550229    28.64544218   181.93466445
 C      1   2   3     2.568947462432    92.05974246   359.08854319
 C      4   3   1     2.641802379745   121.42445323   301.86535627
 C      2   1   3     2.591747392705    25.90276541   357.67466743
 C      5   2   1     2.865334116449    93.40063897   208.91720656
 C      7   3   1     2.867046042668   149.53578127   180.20349080
 C      7   3   1     2.634419638355    89.01094074     1.71245444
 C     10   4   3     2.619258907943   120.76335024   180.81742255
 C     14   7   3     2.619596757123   121.05229341   359.32735080
 C     12   5   2     2.848361624432   114.42172461   303.88010745
 C     13   7   3     2.840887174963   113.58184478    61.86510808
 C     17  12   5     2.515326236643   124.66701703   126.33793915
 C     18  13   7     2.509274959276   125.23645434   237.16506122
 H      6   5   2     2.048709106940   118.37140545   183.51619069
 H      8   7   3     2.048846325608   119.13543544   181.08357501
 H     10   4   3     2.046463376598   119.81470880   359.94151254
 H     12   5   2     2.068819005149   110.34658234    67.50637099
 H     12   5   2     2.068453688031   107.68048450   183.07377210
 H     13   7   3     2.068297872367   110.22793914   299.09246057
 H     13   7   3     2.069494815710   108.25552128   182.98462334
 H     14   7   3     2.049202564670   119.70408520   179.53398130
 H     15  10   4     2.045914718956   120.75287765   179.26919571
 H     16  14   7     2.045793475329   121.06294625   181.14754306
 H     17  12   5     2.055255543611   116.07142395   306.18578842
 H     18  13   7     2.055392540748   115.54153705    56.83205989
 H      1   2   3     1.832271829828    23.19569102   153.97964876
 H      2   1   3     1.832413808145   129.19658787   309.50961746
 H     19  17  12     2.046819906344   121.50263213   179.03456462
 H     19  17  12     2.051251552535   121.39436978     0.48650379
 H     20  18  13     2.046345784613   121.65864135   180.26665229
 H     20  18  13     2.050808393174   121.57310885     0.06289915
 H      2   1   3     8.953570463542    76.99913207   205.95291360
 H     39   2   1     4.549932336787    70.09022054   276.13557879
 C     39   2   1     2.058852246639    18.07191551   350.51234738
 O     40  39   2     3.890574081896    85.24494316    62.91131069
 C     42  40  39     2.537724144695   126.87746332     5.63835163
 C     40  39   2     2.056469386885    66.39181848    24.30254526
 O     43  42  40     2.548332156315   111.07120627   336.79743890
 O     43  42  40     2.259598572303   125.27183674   155.99963665
 H     41  39   2     2.054107607529   109.76586398    25.66357395
 H     44  40  39     2.057195859307   110.20885524   229.01465435
 O     24  12   5     4.968161681138   174.29005331    59.84408627
 C     49  24  12     2.256733710149    99.65347423   354.64986036
 O     50  49  24     2.548346309507   124.63710450    24.05722503
 O     50  49  24     2.551505657272   124.41002430   203.89639579
 C     51  50  49     2.720214042526   110.05183975   189.13756440
 C     52  50  49     2.716643988336   110.22808755   180.28714733
 H     53  51  50     2.058860359442   108.55987147   105.83972829
 H     54  52  50     2.061738160295   108.32039756   111.97506624
 H     53  51  50     2.056884895203   108.34243758   225.52690941
 H     54  52  50     2.056162825253   108.50644584   231.22022027

---------------------
BASIS SET INFORMATION
---------------------
There are 3 groups of distinct atoms

 Group   1 Type O   : 11s6p2d1f contracted to 5s3p2d1f pattern {62111/411/11/1}
 Group   2 Type C   : 11s6p2d1f contracted to 5s3p2d1f pattern {62111/411/11/1}
 Group   3 Type H   : 5s1p contracted to 3s1p pattern {311/1}

Atom   0O    basis set group =>   1
Atom   1O    basis set group =>   1
Atom   2C    basis set group =>   2
Atom   3C    basis set group =>   2
Atom   4C    basis set group =>   2
Atom   5C    basis set group =>   2
Atom   6C    basis set group =>   2
Atom   7C    basis set group =>   2
Atom   8C    basis set group =>   2
Atom   9C    basis set group =>   2
Atom  10C    basis set group =>   2
Atom  11C    basis set group =>   2
Atom  12C    basis set group =>   2
Atom  13C    basis set group =>   2
Atom  14C    basis set group =>   2
Atom  15C    basis set group =>   2
Atom  16C    basis set group =>   2
Atom  17C    basis set group =>   2
Atom  18C    basis set group =>   2
Atom  19C    basis set group =>   2
Atom  20H    basis set group =>   3
Atom  21H    basis set group =>   3
Atom  22H    basis set group =>   3
Atom  23H    basis set group =>   3
Atom  24H    basis set group =>   3
Atom  25H    basis set group =>   3
Atom  26H    basis set group =>   3
Atom  27H    basis set group =>   3
Atom  28H    basis set group =>   3
Atom  29H    basis set group =>   3
Atom  30H    basis set group =>   3
Atom  31H    basis set group =>   3
Atom  32H    basis set group =>   3
Atom  33H    basis set group =>   3
Atom  34H    basis set group =>   3
Atom  35H    basis set group =>   3
Atom  36H    basis set group =>   3
Atom  37H    basis set group =>   3
Atom  38H    basis set group =>   3
Atom  39H    basis set group =>   3
Atom  40C    basis set group =>   2
Atom  41O    basis set group =>   1
Atom  42C    basis set group =>   2
Atom  43C    basis set group =>   2
Atom  44O    basis set group =>   1
Atom  45O    basis set group =>   1
Atom  46H    basis set group =>   3
Atom  47H    basis set group =>   3
Atom  48O    basis set group =>   1
Atom  49C    basis set group =>   2
Atom  50O    basis set group =>   1
Atom  51O    basis set group =>   1
Atom  52C    basis set group =>   2
Atom  53C    basis set group =>   2
Atom  54H    basis set group =>   3
Atom  55H    basis set group =>   3
Atom  56H    basis set group =>   3
Atom  57H    basis set group =>   3
---------------------------------
AUXILIARY/J BASIS SET INFORMATION
---------------------------------
There are 3 groups of distinct atoms

 Group   1 Type O   : 12s5p4d2f1g contracted to 6s4p3d1f1g pattern {711111/2111/211/2/1}
 Group   2 Type C   : 12s5p4d2f1g contracted to 6s4p3d1f1g pattern {711111/2111/211/2/1}
 Group   3 Type H   : 5s2p1d contracted to 3s1p1d pattern {311/2/1}

Atom   0O    basis set group =>   1
Atom   1O    basis set group =>   1
Atom   2C    basis set group =>   2
Atom   3C    basis set group =>   2
Atom   4C    basis set group =>   2
Atom   5C    basis set group =>   2
Atom   6C    basis set group =>   2
Atom   7C    basis set group =>   2
Atom   8C    basis set group =>   2
Atom   9C    basis set group =>   2
Atom  10C    basis set group =>   2
Atom  11C    basis set group =>   2
Atom  12C    basis set group =>   2
Atom  13C    basis set group =>   2
Atom  14C    basis set group =>   2
Atom  15C    basis set group =>   2
Atom  16C    basis set group =>   2
Atom  17C    basis set group =>   2
Atom  18C    basis set group =>   2
Atom  19C    basis set group =>   2
Atom  20H    basis set group =>   3
Atom  21H    basis set group =>   3
Atom  22H    basis set group =>   3
Atom  23H    basis set group =>   3
Atom  24H    basis set group =>   3
Atom  25H    basis set group =>   3
Atom  26H    basis set group =>   3
Atom  27H    basis set group =>   3
Atom  28H    basis set group =>   3
Atom  29H    basis set group =>   3
Atom  30H    basis set group =>   3
Atom  31H    basis set group =>   3
Atom  32H    basis set group =>   3
Atom  33H    basis set group =>   3
Atom  34H    basis set group =>   3
Atom  35H    basis set group =>   3
Atom  36H    basis set group =>   3
Atom  37H    basis set group =>   3
Atom  38H    basis set group =>   3
Atom  39H    basis set group =>   3
Atom  40C    basis set group =>   2
Atom  41O    basis set group =>   1
Atom  42C    basis set group =>   2
Atom  43C    basis set group =>   2
Atom  44O    basis set group =>   1
Atom  45O    basis set group =>   1
Atom  46H    basis set group =>   3
Atom  47H    basis set group =>   3
Atom  48O    basis set group =>   1
Atom  49C    basis set group =>   2
Atom  50O    basis set group =>   1
Atom  51O    basis set group =>   1
Atom  52C    basis set group =>   2
Atom  53C    basis set group =>   2
Atom  54H    basis set group =>   3
Atom  55H    basis set group =>   3
Atom  56H    basis set group =>   3
Atom  57H    basis set group =>   3


           ************************************************************
           *        Program running with 25 parallel MPI-processes    *
           *              working on a common directory               *
           ************************************************************
------------------------------------------------------------------------------
                             ORCA STARTUP CALCULATIONS
                           -- RI-GTO INTEGRALS CHOSEN --
------------------------------------------------------------------------------
------------------------------------------------------------------------------
                   ___                                                        
                  /   \      - P O W E R E D   B Y -                         
                 /     \                                                     
                 |  |  |   _    _      __       _____    __    __             
                 |  |  |  | |  | |    /  \     |  _  \  |  |  /  |          
                  \  \/   | |  | |   /    \    | | | |  |  | /  /          
                 / \  \   | |__| |  /  /\  \   | |_| |  |  |/  /          
                |  |  |   |  __  | /  /__\  \  |    /   |      \           
                |  |  |   | |  | | |   __   |  |    \   |  |\   \          
                \     /   | |  | | |  |  |  |  | |\  \  |  | \   \       
                 \___/    |_|  |_| |__|  |__|  |_| \__\ |__|  \__/        
                                                                              
                      - O R C A' S   B I G   F R I E N D -                    
                                      &                                       
                       - I N T E G R A L  F E E D E R -                       
                                                                              
 v1 FN, 2020, v2 2021, v3 2022-2024                                           
------------------------------------------------------------------------------


----------------------
SHARK INTEGRAL PACKAGE
----------------------

Number of atoms                             ...     58
Number of basis functions                   ...   1148
Number of shells                            ...    456
Maximum angular momentum                    ...      3
Integral batch strategy                     ... SHARK/LIBINT Hybrid
RI-J (if used) integral strategy            ... SPLIT-RIJ (Revised 2003 algorithm where possible)
Printlevel                                  ...      1
Contraction scheme used                     ... SEGMENTED contraction
Prescreening option                         ... SCHWARTZ
   Thresh                                   ... 2.500e-11
   Tcut                                     ... 2.500e-12
   Tpresel                                  ... 2.500e-12 
Coulomb Range Separation                    ... NOT USED
Exchange Range Separation                   ... NOT USED
Multipole approximations                    ... NOT USED
Finite Nucleus Model                        ... NOT USED
CABS basis                                  ... NOT available
Auxiliary Coulomb fitting basis             ... AVAILABLE
   # of basis functions in Aux-J            ...   1854
   # of shells in Aux-J                     ...    610
   Maximum angular momentum in Aux-J        ...      4
Auxiliary J/K fitting basis                 ... NOT available
Auxiliary Correlation fitting basis         ... NOT available
Auxiliary 'external' fitting basis          ... NOT available

Checking pre-screening integrals            ... done (  0.0 sec) Dimension = 456
Check shell pair data                       ... done (  0.0 sec)
Shell pair information
Shell pair cut-off parameter TPreSel        ...   2.5e-12
Total number of shell pairs                 ...    104196
Shell pairs after pre-screening             ...     61563
Total number of primitive shell pairs       ...    317988
Primitive shell pairs kept                  ...    118980
          la=0 lb=0:  16396 shell pairs
          la=1 lb=0:  18249 shell pairs
          la=1 lb=1:   5116 shell pairs
          la=2 lb=0:   8450 shell pairs
          la=2 lb=1:   4845 shell pairs
          la=2 lb=2:   1141 shell pairs
          la=3 lb=0:   3862 shell pairs
          la=3 lb=1:   2273 shell pairs
          la=3 lb=2:    992 shell pairs
          la=3 lb=3:    239 shell pairs

Calculating one electron integrals          ... done (  0.1 sec)
Calculating RI/J V-Matrix + Cholesky decomp.... done (  0.2 sec)
Calculating Nuclear repulsion               ... done (  0.0 sec) ENN=   3302.973048628131 Eh

Diagonalization of the overlap matrix:
Smallest eigenvalue                        ... 5.445e-06
Time for diagonalization                   ...    0.229 sec
Threshold for overlap eigenvalues          ... 1.000e-07
Number of eigenvalues below threshold      ... 0
Time for construction of square roots      ...    0.105 sec
Total time needed                          ...    0.345 sec

-------------------
DFT GRID GENERATION
-------------------

General Integration Accuracy     IntAcc      ... 4.388
Radial Grid Type                 RadialGrid  ... OptM3 with GC (2021)
Angular Grid (max. ang.)         AngularGrid ... 4 (Lebedev-302)
Angular grid pruning method      GridPruning ... 4 (adaptive)
Weight generation scheme         WeightScheme... mBecke (2022)
Basis function cutoff            BFCut       ... 1.0000e-11
Integration weight cutoff        WCut        ... 1.0000e-14
Partially contracted basis set               ... off
Rotationally invariant grid construction     ... off
Angular grids for H and He will be reduced by one unit

Total number of grid points                  ...   273909
Total number of batches                      ...     4309
Average number of points per batch           ...       63
Average number of grid points per atom       ...     4723

--------------------
COSX GRID GENERATION
--------------------

GRIDX 1
-------
General Integration Accuracy     IntAcc      ... 3.816
Radial Grid Type                 RadialGrid  ... OptM3 with GC (2021)
Angular Grid (max. ang.)         AngularGrid ... 1 (Lebedev-50)
Angular grid pruning method      GridPruning ... 4 (adaptive)
Weight generation scheme         WeightScheme... mBecke (2022)
Basis function cutoff            BFCut       ... 1.0000e-11
Integration weight cutoff        WCut        ... 1.0000e-14
Partially contracted basis set               ... on
Rotationally invariant grid construction     ... off
Angular grids for H and He will be reduced by one unit

Total number of grid points                  ...    34695
Total number of batches                      ...      308
Average number of points per batch           ...      112
Average number of grid points per atom       ...      598
UseSFitting                                  ... on

GRIDX 2
-------
General Integration Accuracy     IntAcc      ... 4.020
Radial Grid Type                 RadialGrid  ... OptM3 with GC (2021)
Angular Grid (max. ang.)         AngularGrid ... 2 (Lebedev-110)
Angular grid pruning method      GridPruning ... 4 (adaptive)
Weight generation scheme         WeightScheme... mBecke (2022)
Basis function cutoff            BFCut       ... 1.0000e-11
Integration weight cutoff        WCut        ... 1.0000e-14
Partially contracted basis set               ... on
Rotationally invariant grid construction     ... off
Angular grids for H and He will be reduced by one unit

Total number of grid points                  ...    74861
Total number of batches                      ...      618
Average number of points per batch           ...      121
Average number of grid points per atom       ...     1291
UseSFitting                                  ... on

GRIDX 3
-------
General Integration Accuracy     IntAcc      ... 4.338
Radial Grid Type                 RadialGrid  ... OptM3 with GC (2021)
Angular Grid (max. ang.)         AngularGrid ... 3 (Lebedev-194)
Angular grid pruning method      GridPruning ... 4 (adaptive)
Weight generation scheme         WeightScheme... mBecke (2022)
Basis function cutoff            BFCut       ... 1.0000e-11
Integration weight cutoff        WCut        ... 1.0000e-14
Partially contracted basis set               ... on
Rotationally invariant grid construction     ... off
Angular grids for H and He will be reduced by one unit

Total number of grid points                  ...   163327
Total number of batches                      ...     1303
Average number of points per batch           ...      125
Average number of grid points per atom       ...     2816
UseSFitting                                  ... on
Initializing property integral containers    ... done (  0.0 sec)

SHARK setup successfully completed in   4.5 seconds

Maximum memory used throughout the entire STARTUP-calculation: 128.0 MB


           ************************************************************
           *        Program running with 25 parallel MPI-processes    *
           *              working on a common directory               *
           ************************************************************
-------------------------------------------------------------------------------
                                 ORCA GUESS
                   Start orbitals & Density for SCF / CASSCF
-------------------------------------------------------------------------------

------------
SCF SETTINGS
------------
Hamiltonian:
 Density Functional     Method          .... DFT(GTOs)
 Exchange Functional    Exchange        .... B88
   X-Alpha parameter    XAlpha          ....  0.666667
   Becke's b parameter  XBeta           ....  0.004200
 Correlation Functional Correlation     .... LYP
 LDA part of GGA corr.  LDAOpt          .... VWN-5
 Gradients option       PostSCFGGA      .... off
 Hybrid DFT is turned on
   Fraction HF Exchange ScalHFX         ....  0.200000
   Scaling of DF-GGA-X  ScalDFX         ....  0.720000
   Scaling of DF-GGA-C  ScalDFC         ....  0.810000
   Scaling of DF-LDA-C  ScalLDAC        ....  1.000000
   Perturbative correction              ....  0.000000
   NL short-range parameter             ....  4.800000
 RI-approximation to the Coulomb term is turned on
   Number of AuxJ basis functions       .... 1854
   RIJ-COSX (HFX calculated with COS-X)).... on


General Settings:
 Integral files         IntName         .... honokiol2-opt_EC2
 Hartree-Fock type      HFTyp           .... RHF
 Total Charge           Charge          ....    0
 Multiplicity           Mult            ....    1
 Number of Electrons    NEL             ....  234
 Basis Dimension        Dim             .... 1148
 Nuclear Repulsion      ENuc            ....   3302.9730486281 Eh

Convergence Acceleration:
 AO-DIIS                CNVDIIS         .... on
   Start iteration      DIISMaxIt       ....    12
   Startup error        DIISStart       ....  0.200000
   # of expansion vecs  DIISMaxEq       ....     5
   Bias factor          DIISBfac        ....   1.050
   Max. coefficient     DIISMaxC        ....  10.000
 MO-DIIS                CNVKDIIS        .... off
 Trust-Rad. Augm. Hess. CNVTRAH         .... auto
   Auto Start mean grad. ratio tolernc. ....  1.125000
   Auto Start start iteration           ....    50
   Auto Start num. interpolation iter.  ....    10
   Max. Number of Micro iterations      ....    24
   Max. Number of Macro iterations      .... Maxiter - #DIIS iter
   Number of Davidson start vectors     ....     2
   Converg. threshold    (grad. norm)   ....   1.000e-05
   Grad. Scal. Fac. for Micro threshold ....   0.100
   Minimum threshold for Micro iter.    ....   1.000e-02
[...]
      f0      :     0.000560  f :     0.006513
      f+1     :     0.000764
      f-1     :     0.000501
      f+2     :     0.000122
      f-2     :     0.000961
      f+3     :     0.001614
      f-3     :     0.001991

 49 C s       :     2.740905  s :     2.740905
      pz      :     0.797633  p :     2.602925
      px      :     0.914597
      py      :     0.890695
      dz2     :     0.120905  d :     1.087823
      dxz     :     0.192810
      dyz     :     0.172352
      dx2y2   :     0.339698
      dxy     :     0.262057
      f0      :     0.014528  f :     0.195442
      f+1     :     0.017200
      f-1     :     0.017185
      f+2     :     0.023716
      f-2     :     0.029087
      f+3     :     0.057184
      f-3     :     0.036540

 50 O s       :     3.270496  s :     3.270496
      pz      :     1.564841  p :     4.356448
      px      :     1.284510
      py      :     1.507096
      dz2     :     0.011284  d :     0.104545
      dxz     :     0.025199
      dyz     :     0.009009
      dx2y2   :     0.027728
      dxy     :     0.031325
      f0      :     0.000588  f :     0.007325
      f+1     :     0.000857
      f-1     :     0.000318
      f+2     :     0.000988
      f-2     :     0.001519
      f+3     :     0.001508
      f-3     :     0.001547

 51 O s       :     3.270738  s :     3.270738
      pz      :     1.579219  p :     4.360815
      px      :     1.437216
      py      :     1.344380
      dz2     :     0.011338  d :     0.104447
      dxz     :     0.011798
      dyz     :     0.019960
      dx2y2   :     0.036444
      dxy     :     0.024907
      f0      :     0.000545  f :     0.007310
      f+1     :     0.000416
      f-1     :     0.000775
      f+2     :     0.001470
      f-2     :     0.000817
      f+3     :     0.001851
      f-3     :     0.001436

 52 C s       :     2.814452  s :     2.814452
      pz      :     1.068145  p :     2.904556
      px      :     0.933589
      py      :     0.902822
      dz2     :     0.052853  d :     0.468952
      dxz     :     0.123039
      dyz     :     0.076210
      dx2y2   :     0.096961
      dxy     :     0.119889
      f0      :     0.006833  f :     0.068104
      f+1     :     0.006167
      f-1     :     0.008695
      f+2     :     0.003715
      f-2     :     0.011328
      f+3     :     0.015506
      f-3     :     0.015859

 53 C s       :     2.813670  s :     2.813670
      pz      :     1.054124  p :     2.900970
      px      :     0.842292
      py      :     1.004554
      dz2     :     0.050942  d :     0.474318
      dxz     :     0.093333
      dyz     :     0.116445
      dx2y2   :     0.106327
      dxy     :     0.107270
      f0      :     0.006394  f :     0.068578
      f+1     :     0.010666
      f-1     :     0.005499
      f+2     :     0.006851
      f-2     :     0.008642
      f+3     :     0.016187
      f-3     :     0.014339

 54 H s       :     0.805509  s :     0.805509
      pz      :     0.028225  p :     0.062376
      px      :     0.021584
      py      :     0.012567

 55 H s       :     0.816191  s :     0.816191
      pz      :     0.026629  p :     0.059241
      px      :     0.009552
      py      :     0.023060

 56 H s       :     0.812661  s :     0.812661
      pz      :     0.031079  p :     0.059410
      px      :     0.017216
      py      :     0.011115

 57 H s       :     0.809693  s :     0.809693
      pz      :     0.029809  p :     0.059525
      px      :     0.012773
      py      :     0.016943



                      *****************************
                      * MAYER POPULATION ANALYSIS *
                      *****************************

  NA   - Mulliken gross atomic population
  ZA   - Total nuclear charge
  QA   - Mulliken gross atomic charge
  VA   - Mayer's total valence
  BVA  - Mayer's bonded valence
  FA   - Mayer's free valence

  ATOM       NA         ZA         QA         VA         BVA        FA
  0 O      8.4007     8.0000    -0.4007     2.0886     2.0886    -0.0000
  1 O      8.4321     8.0000    -0.4321     2.0238     2.0238     0.0000
  2 C      5.8831     6.0000     0.1169     3.3555     3.3555    -0.0000
  3 C      5.9059     6.0000     0.0941     3.6903     3.6903     0.0000
  4 C      5.8889     6.0000     0.1111     3.5380     3.5380     0.0000
  5 C      6.2940     6.0000    -0.2940     3.9752     3.9752     0.0000
  6 C      5.8685     6.0000     0.1315     3.7133     3.7133    -0.0000
  7 C      6.2585     6.0000    -0.2585     3.8609     3.8609    -0.0000
  8 C      5.7960     6.0000     0.2040     3.9932     3.9932    -0.0000
  9 C      6.1921     6.0000    -0.1921     3.8880     3.8880    -0.0000
 10 C      5.7601     6.0000     0.2399     3.8278     3.8278     0.0000
 11 C      6.2725     6.0000    -0.2725     3.8952     3.8952    -0.0000
 12 C      6.1957     6.0000    -0.1957     3.8719     3.8719     0.0000
 13 C      6.1395     6.0000    -0.1395     3.9153     3.9153    -0.0000
 14 C      6.2116     6.0000    -0.2116     3.8656     3.8656     0.0000
 15 C      6.2315     6.0000    -0.2315     3.9688     3.9688    -0.0000
 16 C      6.1371     6.0000    -0.1371     3.7864     3.7864    -0.0000
 17 C      6.0863     6.0000    -0.0863     3.8365     3.8365     0.0000
 18 C      6.2727     6.0000    -0.2727     3.9120     3.9120     0.0000
 19 C      6.2649     6.0000    -0.2649     3.9367     3.9367     0.0000
 20 H      0.8849     1.0000     0.1151     0.9828     0.9828     0.0000
 21 H      0.8825     1.0000     0.1175     0.9830     0.9830     0.0000
 22 H      0.8783     1.0000     0.1217     0.9781     0.9781    -0.0000
 23 H      0.8287     1.0000     0.1713     0.9778     0.9778     0.0000
 24 H      0.8940     1.0000     0.1060     0.9809     0.9809    -0.0000
 25 H      0.8988     1.0000     0.1012     0.9704     0.9704     0.0000
 26 H      0.8960     1.0000     0.1040     0.9689     0.9689     0.0000
 27 H      0.9091     1.0000     0.0909     0.9739     0.9739    -0.0000
 28 H      0.8972     1.0000     0.1028     0.9888     0.9888     0.0000
 29 H      0.8999     1.0000     0.1001     0.9921     0.9921     0.0000
 30 H      0.8875     1.0000     0.1125     0.9800     0.9800    -0.0000
 31 H      0.9020     1.0000     0.0980     0.9753     0.9753     0.0000
 32 H      0.6702     1.0000     0.3298     0.9333     0.9333     0.0000
 33 H      0.6740     1.0000     0.3260     0.9274     0.9274     0.0000
 34 H      0.8791     1.0000     0.1209     0.9743     0.9743     0.0000
 35 H      0.8663     1.0000     0.1337     0.9756     0.9756    -0.0000
 36 H      0.8934     1.0000     0.1066     0.9742     0.9742     0.0000
 37 H      0.9000     1.0000     0.1000     0.9782     0.9782    -0.0000
 38 H      0.8891     1.0000     0.1109     0.9598     0.9598     0.0000
 39 H      0.8797     1.0000     0.1203     0.9592     0.9592    -0.0000
 40 C      6.0333     6.0000    -0.0333     3.8546     3.8546     0.0000
 41 O      8.2524     8.0000    -0.2524     2.1511     2.1511    -0.0000
 42 C      5.5301     6.0000     0.4699     4.3358     4.3358    -0.0000
 43 C      6.0293     6.0000    -0.0293     3.8450     3.8450    -0.0000
 44 O      8.2819     8.0000    -0.2819     2.1136     2.1136    -0.0000
 45 O      8.3637     8.0000    -0.3637     2.1122     2.1122     0.0000
 46 H      0.8530     1.0000     0.1470     0.9716     0.9716    -0.0000
 47 H      0.8602     1.0000     0.1398     0.9704     0.9704    -0.0000
 48 O      8.3268     8.0000    -0.3268     2.1726     2.1726    -0.0000
 49 C      5.5785     6.0000     0.4215     4.4420     4.4420     0.0000
 50 O      8.2642     8.0000    -0.2642     2.1177     2.1177    -0.0000
 51 O      8.2600     8.0000    -0.2600     2.1210     2.1210    -0.0000
 52 C      6.0405     6.0000    -0.0405     3.8346     3.8346    -0.0000
 53 C      6.0128     6.0000    -0.0128     3.8863     3.8863    -0.0000
 54 H      0.8535     1.0000     0.1465     0.9773     0.9773    -0.0000
 55 H      0.8916     1.0000     0.1084     0.9571     0.9571     0.0000
 56 H      0.8819     1.0000     0.1181     0.9592     0.9592     0.0000
 57 H      0.8839     1.0000     0.1161     0.9614     0.9614     0.0000

  Mayer bond orders larger than 0.100000
B(  0-O ,  8-C ) :   1.1622 B(  0-O , 32-H ) :   0.8426 B(  1-O , 10-C ) :   1.0569 
B(  1-O , 33-H ) :   0.8560 B(  2-C ,  3-C ) :   0.8648 B(  2-C ,  7-C ) :   1.3059 
B(  2-C ,  8-C ) :   1.2413 B(  3-C ,  5-C ) :   1.4084 B(  3-C ,  9-C ) :   1.3419 
B(  4-C ,  5-C ) :   1.3537 B(  4-C , 10-C ) :   1.2780 B(  4-C , 11-C ) :   0.9091 
B(  5-C , 20-H ) :   0.9627 B(  6-C ,  7-C ) :   1.3876 B(  6-C , 12-C ) :   0.9081 
B(  6-C , 13-C ) :   1.3614 B(  7-C , 21-H ) :   0.9695 B(  8-C , 15-C ) :   1.4182 
B(  9-C , 14-C ) :   1.3935 B(  9-C , 22-H ) :   0.9946 B( 10-C , 14-C ) :   1.3755 
B( 11-C , 16-C ) :   0.9323 B( 11-C , 23-H ) :   0.9741 B( 11-C , 24-H ) :   0.9587 
B( 12-C , 17-C ) :   0.9667 B( 12-C , 25-H ) :   0.9657 B( 12-C , 26-H ) :   0.9730 
B( 13-C , 15-C ) :   1.4228 B( 13-C , 27-H ) :   0.9793 B( 14-C , 28-H ) :   0.9915 
B( 15-C , 29-H ) :   0.9860 B( 16-C , 18-C ) :   1.8936 B( 16-C , 30-H ) :   0.9580 
B( 17-C , 19-C ) :   1.9260 B( 17-C , 31-H ) :   0.9555 B( 18-C , 34-H ) :   0.9666 
B( 18-C , 35-H ) :   0.9642 B( 19-C , 36-H ) :   0.9661 B( 19-C , 37-H ) :   0.9624 
B( 38-H , 40-C ) :   0.9645 B( 39-H , 43-C ) :   0.9605 B( 40-C , 43-C ) :   0.9846 
B( 40-C , 44-O ) :   0.9041 B( 40-C , 46-H ) :   0.9543 B( 41-O , 42-C ) :   1.1852 
B( 41-O , 43-C ) :   0.9111 B( 42-C , 44-O ) :   1.1398 B( 42-C , 45-O ) :   1.9480 
B( 43-C , 47-H ) :   0.9501 B( 48-O , 49-C ) :   2.0554 B( 49-C , 50-O ) :   1.1541 
B( 49-C , 51-O ) :   1.1523 B( 50-O , 52-C ) :   0.9125 B( 51-O , 53-C ) :   0.9276 
B( 52-C , 53-C ) :   0.9836 B( 52-C , 54-H ) :   0.9531 B( 52-C , 56-H ) :   0.9613 
B( 53-C , 55-H ) :   0.9633 B( 53-C , 57-H ) :   0.9586 

-------
TIMINGS
-------

Total SCF time: 0 days 0 hours 0 min 46 sec 

Total time                  ....      46.460 sec
Sum of individual times     ....      46.074 sec  ( 99.2%)

SCF preparation             ....       1.130 sec  (  2.4%)
Fock matrix formation       ....      40.357 sec  ( 86.9%)
  Startup                   ....       0.163 sec  (  0.4% of F)
  Split-RI-J                ....       3.739 sec  (  9.3% of F)
  Chain of spheres X        ....      31.562 sec  ( 78.2% of F)
  XC integration            ....       3.465 sec  (  8.6% of F)
    Basis function eval.    ....       0.764 sec  ( 22.1% of XC)
    Density eval.           ....       1.033 sec  ( 29.8% of XC)
    XC-Functional eval.     ....       0.048 sec  (  1.4% of XC)
    XC-Potential eval.      ....       0.811 sec  ( 23.4% of XC)
Diagonalization             ....       0.000 sec  (  0.0%)
Density matrix formation    ....       0.636 sec  (  1.4%)
Total Energy calculation    ....       0.217 sec  (  0.5%)
Population analysis         ....       0.426 sec  (  0.9%)
Orbital Transformation      ....       0.470 sec  (  1.0%)
Orbital Orthonormalization  ....       0.000 sec  (  0.0%)
DIIS solution               ....       0.553 sec  (  1.2%)
SOSCF solution              ....       2.286 sec  (  4.9%)
Finished LeanSCF after  46.7 sec

Maximum memory used throughout the entire LEANSCF-calculation: 213.3 MB

-------------------------   --------------------
FINAL SINGLE POINT ENERGY     -1531.732667503872
-------------------------   --------------------

                                *** OPTIMIZATION RUN DONE ***



           ************************************************************
           *        Program running with 25 parallel MPI-processes    *
           *              working on a common directory               *
           ************************************************************

------------------------------------------------------------------------------
                              ORCA PROPERTY CALCULATIONS
------------------------------------------------------------------------------

GBWName                                 ... honokiol2-opt_EC2.gbw
Number of atoms                         ...     58
Number of basis functions               ...   1148
Max core memory                         ...   5000 MB

Electric properties:
Dipole moment                           ... YES
Quadrupole moment                       ...  NO
Static polarizability (Dipole/Dipole)   ...  NO
Static polarizability (Dipole/Quad.)    ...  NO
Static polarizability (Quad./Quad.)     ...  NO
Static polarizability (Velocity)        ...  NO

Atomic electric properties:
Dipole moment                           ...  NO
Quadrupole moment                       ...  NO
Static polarizability                   ...  NO

Choice of electric origin               ... Center of mass
Position of electric origin             ...    -2.847151     1.943557     1.729763

General magnetic properties:
Magnetizability                         ...  NO

EPR properties:
g-Tensor (aka g-matrix)                 ...  NO
Zero-Field splitting spin-orbit         ...  NO
Zero-field splitting spin-spin          ...  NO
Hyperfine couplings                     ...  NO (   0 nuclei)
Quadrupole couplings                    ...  NO (   0 nuclei)
Contact density                         ...  NO (   0 nuclei)

NMR properties:
Chemical shifts                         ...  NO (   0 nuclei)
Spin-rotation constants                 ...  NO (   0 nuclei)
Spin-spin couplings                     ...  NO (   0 nuclei,    0 pairs)

Choice of magnetic origin               ... GIAO
Position of magnetic origin             ...     0.000000     0.000000     0.000000

Properties with geometric perturbations:
SCF Hessian                             ...  NO
IR spectrum                             ...  NO
VCD spectrum                            ...  NO
X-ray spectroscopy properties:
SCF XES/XAS/RIXS spectra                ...  NO


-------------
DIPOLE MOMENT
-------------

Method             : SCF
Type of density    : Electron Density
Multiplicity       :   1
Irrep              :   0
Energy             : -1531.7326675038716530 Eh
Relativity type    : 
Basis              : AO
                                X                 Y                 Z
Electronic contribution:     -4.450899155       8.895683503      16.087923987
Nuclear contribution   :      3.187682464      -8.178933687     -15.906434046
                        -----------------------------------------
Total Dipole Moment    :     -1.263216691       0.716749816       0.181489941
                        -----------------------------------------
Magnitude (a.u.)       :      1.463688937
Magnitude (Debye)      :      3.720401614



--------------------
Rotational spectrum 
--------------------
 
Rotational constants in cm-1:             0.005651             0.002867             0.002714 
Rotational constants in MHz :           169.400348            85.964820            81.350654 

Dipole components along the rotational axes: 
x,y,z [a.u.] :     1.349030     0.017894    -0.567612 
x,y,z [Debye]:     3.428962     0.045482    -1.442755 

 

Dipole moment calculation done in   0.1 sec 

Maximum memory used throughout the entire PROP-calculation: 120.4 MB

--------------------------------
SUGGESTED CITATIONS FOR THIS RUN
--------------------------------

Below you find a list of papers that are relevant to this ORCA run
We neither can nor want to force you to cite these papers, but we appreciate if you do
You receive ORCA, which is the product of decades of hard work by many enthusiastic individuals, for free
The only thing we kindly ask in return is that you cite our papers,
We deeply appreciate it, if you show your appreciation for ORCA by not just citing the generic ORCA reference.

Please note that relegating all ORCA citations to the supporting information does *not* help us.
SI sections are not indexed - citations you put there will not count into any citation statistics
But we need these citations in order to attract the funding resources that allow us to do what we are doing

Therefore, if you are a happy ORCA user, please consider citing a few of the papers listed below in the main body of your paper

In addition to the list printed below, the program has created the file honokiol2-opt_EC2.bibtex that contains the list in bibtex format
You can import this file easily into all common literature databanks and citation aid programs


List of essential papers. We consider these as the minimum necessary citations

  1. Neese,F.
     Software update: the ORCA program system, version 5.0
     WIRES Comput. Molec. Sci., 2022 12(1)e1606
     doi.org/10.1002/wcms.1606

List of papers to cite with high priority. The work reported in these papers was absolutely
necessary for this run to complete.
Our perspective: the developers of density functionals and basis sets usually get cited in chemistry papers
Good! But without the algorithms to do something with them, the functionals or basis sets would not do anything.
Hence, in our opinion, the algorithm design and method developments papers are equally worthy of getting cited

  1. Neese,F.
     An improvement of the resolution of the identity approximation for the formation of the Coulomb matrix
     J. Comp. Chem., 2003 24(14)1740-1747
     doi.org/10.1002/jcc.10318
  2. Neese,F.; Wennmohs,F.; Hansen,A.; Becker,U.
     Efficient, approximate and parallel Hartree-Fock and hybrid DFT calculations. A 'chain-of-spheres' algorithm for the Hartree-Fock exchange
     Chem. Phys., 2009 356(1-3)98-109
     doi.org/10.1016/j.chemphys.2008.10.036
  3. Helmich-Paris,B.; de Souza,B.; Neese,F.; Izsák,R.
     An improved chain of spheres for exchange algorithm
     J. Chem. Phys., 2021 155 104109
     doi.org/doi: 10.1063/5.0058766.
  4. Neese,F.
     The SHARK Integral Generation and Digestion System
     J. Comp. Chem., 2022  1-16
     doi.org/10.1002/jcc.26942

List of suggested additional citations. These are papers that are important in the 'surrounding' of 
of this run, or papers that preceded the highly important papers. If you like your results we are grateful for a citation.

  1. Izsak,R.; Neese,F.
     An overlap fitted chain of spheres exchange method
     J. Chem. Phys., 2011 135 144105
     doi.org/10.1063/1.3646921
  2. Izsak,R.; Hansen,A.; Neese,F.
     The resolution of identity and chain of spheres approximations for the LPNO-CCSD singles Fock term
     Molec. Phys., 2012 110 2413-2417
     doi.org/10.1080/00268976.2012.687466
  3. Neese,F.
     The ORCA program system
     WIRES Comput. Molec. Sci., 2012 2(1)73-78
     doi.org/10.1002/wcms.81
  4. Izsak,R.; Neese,F.; Klopper,W.
     Robust fitting techniques in the chain of spheres approximation to the Fock exchange: The role of the complementary space
     J. Chem. Phys., 2013 139 
     doi.org/10.1063/1.4819264
  5. Neese,F.
     Software update: the ORCA program system, version 4.0
     WIRES Comput. Molec. Sci., 2018 8(1)1-6
     doi.org/10.1002/wcms.1327
  6. Neese,F.; Wennmohs,F.; Becker,U.; Riplinger,C.
     The ORCA quantum chemistry program package
     J. Chem. Phys., 2020 152 Art. No. L224108
     doi.org/10.1063/5.0004608

List of optional additional citations

  1. Neese,F.
     Approximate second-order SCF convergence for spin unrestricted wavefunctions
     Chem. Phys. Lett., 2000 325(1-3)93-98
     doi.org/10.1016/s0009-2614(00)00662-x

Timings for individual modules:

Sum of individual times          ...     3623.881 sec (=  60.398 min)
Startup calculation              ...      241.639 sec (=   4.027 min)   6.7 %
SCF iterations                   ...     2457.609 sec (=  40.960 min)  67.8 %
Property calculations            ...        1.282 sec (=   0.021 min)   0.0 %
SCF Gradient evaluation          ...      921.237 sec (=  15.354 min)  25.4 %
Geometry relaxation              ...        2.114 sec (=   0.035 min)   0.1 %
                             ****ORCA TERMINATED NORMALLY****
TOTAL RUN TIME: 0 days 1 hours 1 minutes 7 seconds 723 msec
