
                                 *****************
                                 * O   R   C   A *
                                 *****************

                                            #,                                       
                                            ###                                      
                                            ####                                     
                                            #####                                    
                                            ######                                   
                                           ########,                                 
                                     ,,################,,,,,                         
                               ,,#################################,,                 
                          ,,##########################################,,             
                       ,#########################################, ''#####,          
                    ,#############################################,,   '####,        
                  ,##################################################,,,,####,       
                ,###########''''           ''''###############################       
              ,#####''   ,,,,##########,,,,          '''####'''          '####       
            ,##' ,,,,###########################,,,                        '##       
           ' ,,###''''                  '''############,,,                           
         ,,##''                                '''############,,,,        ,,,,,,###''
      ,#''                                            '''#######################'''  
     '                                                          ''''####''''         
             ,#######,   #######,   ,#######,      ##                                
            ,#'     '#,  ##    ##  ,#'     '#,    #''#        ,####,   ,####,        
            ##       ##  ##   ,#'  ##            #'  '#       #'       #'  '#        
            ##       ##  #######   ##           ,######,      #####,   #    #        
            '#,     ,#'  ##    ##  '#,     ,#' ,#      #,     #,   #   #,  ,#        
             '#######'   ##     ##  '#######'  #'      '#     '####' # '####'        



                #########################################################
                #                        -***-                          #
                #          Department of theory and spectroscopy        #
                #                                                       #
                #                      Frank Neese                      #
                #                                                       #
                #     Directorship, Architecture, Infrastructure        #
                #                    SHARK, DRIVERS                     #
                #        Core code/Algorithms in most modules           #
                #                                                       #
                #        Max Planck Institute fuer Kohlenforschung      #
                #                Kaiser Wilhelm Platz 1                 #
                #                 D-45470 Muelheim/Ruhr                 #
                #                      Germany                          #
                #                                                       #
                #                  All rights reserved                  #
                #                        -***-                          #
                #########################################################


                         Program Version 6.0.1  -  RELEASE   -


 With contributions from (in alphabetic order):
[Max-Planck-Institut fuer Kohlenforschung]                               
  Daniel Aravena         : Magnetic Suceptibility                        
  Michael Atanasov       : Ab Initio Ligand Field Theory (pilot matlab implementation)
  Alexander A. Auer      : GIAO ZORA, VPT2 properties, NMR spectrum      
  Ute Becker             : All parallelization in ORCA, NUMFREQ, NUMCALC 
  Giovanni Bistoni       : ED, misc. LED, open-shell LED, HFLD           
  Martin Brehm           : Molecular dynamics                            
  Dmytro Bykov           : pre 5.0 version of the SCF Hessian            
  Marcos Casanova-Páez   : Triplet and SCS-CIS(D). UHF-(DLPNO)-IP/EA/STEOM-CCSD. UHF-CVS-IP/STEOM-CCSD   
  Vijay G. Chilkuri      : MRCI spin determinant printing, contributions to CSF-ICE 
  Pauline Colinet        : FMM embedding                                 
  Dipayan Datta          : RHF DLPNO-CCSD density                        
  Achintya Kumar Dutta   : EOM-CC, STEOM-CC                              
  Nicolas Foglia         : Exact transition moments, OPA infrastructure, MCD improvements    
  Dmitry Ganyushin       : Spin-Orbit,Spin-Spin,Magnetic field MRCI      
  Miquel Garcia-Rates    : C-PCM and meta-GGA Hessian, CCSD/C-PCM, Gaussian charge scheme 
  Tiago L. C. Gouveia    : GS-ROHF, GS-ROCIS                             
  Yang Guo               : DLPNO-NEVPT2, F12-NEVPT2, CIM, IAO-localization        
  Andreas Hansen         : Spin unrestricted coupled pair/coupled cluster methods 
  Ingolf Harden          : AUTO-CI MPn and infrastructure                
  Benjamin Helmich-Paris : MC-RPA, TRAH-(SCF,CASSCF), AVAS, COSX integrals, SCF dyn. polar. 
  Lee Huntington         : MR-EOM, pCC                                   
  Robert Izsak           : Overlap fitted RIJCOSX, COSX-SCS-MP3, EOM     
  Riya Kayal             : Wick's Theorem for AUTO-CI, AUTO-CI UHF-CCSDT 
  Emily Kempfer          : AUTO-CI, RHF CISDT and CCSDT                  
  Christian Kollmar      : KDIIS, OOCD, Brueckner-CCSD(T), CCSD density, CASPT2, CASPT2-K, improved NEVPT2 
  Axel Koslowski         : Symmetry handling                             
  Simone Kossmann        : meta-GGA functionals, TD-DFT gradient, OOMP2, (MP2 Hessian; deprecated post 5.0) 
  Lucas Lang             : DCDCAS                                        
  Marvin Lechner         : AUTO-CI (C++ implementation), FIC-MRCC        
  Spencer Leger          : CASSCF response                               
  Dagmar Lenk            : GEPOL surface, SMD, ORCA-2-JSON               
  Dimitrios Liakos       : Extrapolation schemes; Compound Job, initial MDCI parallelization 
  Dimitrios Manganas     : Further ROCIS development; embedding schemes. LFT, Crystal Embedding 
  Dimitrios Pantazis     : SARC Basis sets                               
  Anastasios Papadopoulos: AUTO-CI, single reference methods and gradients 
  Taras Petrenko         : pre 6.0 DFT Hessian and TD-DFT gradient, (ASA, deprecated), ECA, 1-Electron XAS/XES, NRVS 
  Peter Pinski           : DLPNO-MP2, DLPNO-MP2 Gradient                 
  Christoph Reimann      : Effective Core Potentials                     
  Marius Retegan         : Local ZFS, SOC                                
  Christoph Riplinger    : Optimizer, TS searches, QM/MM, DLPNO-CCSD(T), (RO)-DLPNO pert. Triples 
  Michael Roemelt        : Original ROCIS implementation                 
  Masaaki Saitow         : Open-shell DLPNO-CCSD energy and density      
  Barbara Sandhoefer     : DKH picture change effects                    
  Kantharuban Sivalingam : CASSCF convergence/infrastructure, NEVPT2 and variants, FIC-MRCI 
  Bernardo de Souza      : ESD, SOC TD-DFT                               
  Georgi L. Stoychev     : AutoAux, RI-MP2 NMR, DLPNO-MP2 response, X2C  
  Van Anh Tran           : RI-MP2 g-tensors                              
  Willem Van den Heuvel  : Paramagnetic NMR                              
  Zikuan Wang            : NOTCH, Electric field optimization            
  Frank Wennmohs         : Technical directorship and infrastructure     
  Hang Xu                : AUTO-CI-Response properties                   
                                                                         
[FACCTs GmbH]                                                            
  Markus Bursch, Miquel Garcia-Rates, Christoph Riplinger, Bernardo de Souza, Georgi L. Stoychev 
                                                                 
  APM, Basis sets (HGBS, AHGBS, def-TZVP (Ac-Lr), def2-XVPD (La-Lu)), CI-OPT, improved COSX, DLPNO-Multilevel,           
  DOCKER, DRACO, updates on ESD, GOAT, IRC, LR-CPCM, MBIS, meta-GGA TD-DFT gradient, ML-optimized integration grids, 
  MM, NACMEs, nearIR, NEB, NEB-TS, NL-DFT gradient (VV10), 2- and 3-layer-ONIOM, interface openCOSMO-RS, QMMM,   
  Crystal-QMMM, SF, symmetry and pop. for TD-DFT, r2SCAN hybrids, SOLVATOR                                   
                                                                         
[Other institutions]                                                     
  V. Asgeirsson          : NEB                                           
  Christoph Bannwarth    : sTDA-DFT, sTD-DFT, PBEh-3c, B97-3c, D3        
  Sebastian Ehlert       : rSCAN, r2SCAN, r2SCAN-3c, D4, dhf basis sets  
  Marvin Friede          : D4 for Fr, Ra, Ac-Lr                          
  Lars Goerigk           : TD-DFT with DH, B97 family of functionals     
  Stefan Grimme          : VdW corrections, initial TS optimization, DFT functionals, gCP, sTDA/sTD-DF 
  Waldemar Hujo          : DFT-NL                                        
  H. Jonsson             : NEB                                           
  Holger Kruse           : gCP                                           
  Marcel Mueller         : wB97X-3c, vDZP basis set                      
  Hagen Neugebauer       : wr2SCAN                                       
  Tobias Risthaus        : range-separated hybrid DFT                    
  Lukas Wittmann         : regularized MP2, r2SCAN double-hybrids, wr2SCAN        
                                                                         
We gratefully acknowledge several colleagues who have allowed us to      
interface, adapt or use parts of their codes:                            
  Ed Valeev, F. Pavosevic, A. Kumar             : LibInt (2-el integral package), F12 methods 
  Garnet Chan, S. Sharma, J. Yang, R. Olivares  : DMRG                   
  Ulf Ekstrom                                   : XCFun DFT Library      
  Mihaly Kallay                                 : mrcc  (arbitrary order and MRCC methods)
  Frank Weinhold                                : gennbo (NPA and NBO analysis)           
  Simon Mueller                                 : openCOSMO-RS                            
  Christopher J. Cramer and Donald G. Truhlar   : smd solvation model                     
  S Lehtola, MJT Oliveira, MAL Marques          : LibXC Library                           
  Liviu Ungur et al                             : ANISO software                          


 Your calculation uses the libint2 library for the computation of 2-el integrals
 For citations please refer to: http://libint.valeyev.net

 Your ORCA version has been built with support for libXC version: 6.2.2
 For citations please refer to: https://libxc.gitlab.io

 This ORCA versions uses:
   CBLAS   interface :  Fast vector & matrix operations
   LAPACKE interface :  Fast linear algebra routines
   SCALAPACK package :  Parallel linear algebra routines
   Shared memory     :  Shared parallel matrices
   BLAS/LAPACK       :  OpenBLAS 0.3.27  USE64BITINT DYNAMIC_ARCH NO_AFFINITY SkylakeX SINGLE_THREADED
        Core in use  :  SkylakeX
   Copyright (c) 2011-2014, The OpenBLAS Project


NOTE: MaxCore=5000 MB was set to SCF,MP2,MDCI,CIPSI,MRCI and CIS
      => If you want to overwrite this, your respective input block should be placed after the MaxCore statement
Warning: RI is on but no J-basis has been assigned. Assigning Def2/J (nothing to worry about!)
================================================================================

----- Orbital basis set information -----
Your calculation utilizes the basis: def2-TZVP
   F. Weigend and R. Ahlrichs, Phys. Chem. Chem. Phys. 7, 3297 (2005).

----- AuxJ basis set information -----
Your calculation utilizes the auxiliary basis: def2/J
   F. Weigend, Phys. Chem. Chem. Phys. 8, 1057 (2006).

================================================================================
                                        WARNINGS
                       Please study these warnings very carefully!
================================================================================


WARNING: Geometry Optimization
  ===> : Switching off AutoStart
         For restart on a previous wavefunction, please use MOREAD

================================================================================
                                       INPUT FILE
================================================================================
NAME = honokiol3_FEC2.inp
|  1> ! OPT B3LYP def2-TZVP TightSCF
|  2> 
|  3> %maxcore 5000
|  4> 
|  5> %pal
|  6> nprocs 25
|  7> end
|  8> 
|  9> * xyz 0 1
| 10> O        1.6627025510      1.8490677584      2.1549816901                 
| 11> O       -3.6315096646     -1.5267486995      2.0566426287                 
| 12> C        1.4819966496      0.2089411424      0.3556711275                 
| 13> C        0.1387326596     -0.2640326816      0.7878357209                 
| 14> C       -2.2557440071     -0.4869867240      0.3423780968                 
| 15> C       -0.9779759943     -0.0785086245     -0.0313315599                 
| 16> C        3.3465575710      0.0687701850     -1.2257827112                 
| 17> C        2.0864770007     -0.3280309630     -0.7831366517                 
| 18> C        2.1721267992      1.2077269992      1.0651778712                 
| 19> C       -0.0452168429     -0.9099554565      2.0127568521                 
| 20> C       -2.4037825144     -1.1319294335      1.5789303620                 
| 21> C       -3.4498740662     -0.1985531522     -0.5443610780                 
| 22> C        3.9776325287     -0.5627420276     -2.4532307395                 
| 23> C        4.0133963127      1.0464712007     -0.4891640236                 
| 24> C       -1.3030296074     -1.3503403363      2.3995462384                 
| 25> C        3.4367535839      1.6109277836      0.6396652718                 
| 26> C       -4.1918983726     -1.4346857648     -0.9813320379                 
| 27> C        3.1171742725     -0.4865344798     -3.6837084033                 
| 28> C       -5.4924903822     -1.6519955763     -0.8036122537                 
| 29> C        2.7219660555     -1.5287830705     -4.4049006816                 
| 30> H       -0.8571933718      0.4418368699     -0.9738133883                 
| 31> H        1.5496952918     -1.0916873901     -1.3344694678                 
| 32> H        0.8036960569     -1.0848446976      2.6623382087                 
| 33> H       -4.1437387127      0.4773824760     -0.0325700304                 
| 34> H       -3.0958319550      0.3375241997     -1.4287290009                 
| 35> H        4.2240762118     -1.6106533587     -2.2527229404                 
| 36> H        4.9275433966     -0.0544306308     -2.6501846474                 
| 37> H        4.9999453873      1.3730433303     -0.7987328906                 
| 38> H       -1.4440974202     -1.8711849175      3.3380096178                 
| 39> H        3.9556050013      2.3713674706      1.2102321238                 
| 40> H       -3.5904816759     -2.1950235447     -1.4734346335                 
| 41> H        2.8047036996      0.5122747138     -3.9786023448                 
| 42> H        0.7503313019      1.5825474149      2.3501248854                 
| 43> H       -4.2387052600     -1.6716149116      1.3145891728                 
| 44> H       -5.9687756387     -2.5607353767     -1.1494359366                 
| 45> H       -6.1328186546     -0.9147341914     -0.3291701146                 
| 46> H        2.1050234979     -1.4076837456     -5.2866087452                 
| 47> H        3.0046538534     -2.5425837597     -4.1411667454                 
| 48> H       -4.6383550102      0.1440356959      2.8769725072                 
| 49> H       -3.2297569593     -0.8627218551      4.5744986923                 
| 50> O       -2.0877680136      0.8562369719      4.6902759839                 
| 51> C       -3.3691139532      0.2101383153      4.7038041752                 
| 52> C       -4.0882300419      0.8340460237      3.5123089479                 
| 53> C       -1.9149129559      1.4944844137      3.5204257683                 
| 54> O       -0.9174450476      2.0375320904      3.1676398021                 
| 55> O       -3.0566027334      1.4272909663      2.7713124246                 
| 56> F       -4.9636878640      1.8136733267      3.9245675133                 
| 57> H       -3.8719020182      0.4317951717      5.6422920051                 
| 58> H        1.3695010496      5.1874124850     -0.6227826552                 
| 59> H        2.0510115881      3.5896252605     -0.1787284324                 
| 60> C        1.1444999191      4.1411125534     -0.4285938972                 
| 61> F       -0.6337314316      5.1594699235      0.7960348794                 
| 62> C        0.0643346981      3.9799431566      0.6367281736                 
| 63> H        0.4063038249      3.6529756903      1.6153231206                 
| 64> O        0.5487627156      3.5602699799     -1.5980565490                 
| 65> O       -0.7963567621      3.0171589563      0.0903328609                 
| 66> C       -0.5545587676      2.8690703564     -1.2485647878                 
| 67> O       -1.2209025900      2.2110004058     -1.9792359889
| 68> *
| 69> 
| 70>                          ****END OF INPUT****
================================================================================

                       *****************************
                       * Geometry Optimization Run *
                       *****************************

Geometry optimization settings:
Update method            Update   .... BFGS
Choice of coordinates    CoordSys .... (2022) Redundant Internals
Initial Hessian          InHess   .... Almloef's Model
Max. no of cycles        MaxIter  .... 174

Convergence Tolerances:
Energy Change            TolE     ....  5.0000e-06 Eh
Max. Gradient            TolMAXG  ....  3.0000e-04 Eh/bohr
RMS Gradient             TolRMSG  ....  1.0000e-04 Eh/bohr
Max. Displacement        TolMAXD  ....  4.0000e-03 bohr
RMS Displacement         TolRMSD  ....  2.0000e-03 bohr
Strict Convergence                .... False

------------------------------------------------------------------------------
                        ORCA OPTIMIZATION COORDINATE SETUP
------------------------------------------------------------------------------

The optimization will be done in redundant internal coordinates (2022)
Making redundant internal coordinates   ...  (2022 redundants) done
Evaluating the initial hessian          ...  (Almloef) done
Evaluating the coordinates              ...  done
Calculating the B-matrix                .... done
Calculating the G-matrix                .... done
Diagonalizing the G-matrix              .... done
Small eigenvalue found = 4.159e-03
Small eigenvalue found = 6.939e-03
Small eigenvalue found = 1.145e-02
Small eigenvalue found = 1.322e-02
Small eigenvalue found = 2.207e-02
The first mode is                       ....  236
The number of degrees of freedom        ....  168

    -----------------------------------------------------------------
                    Redundant Internal Coordinates


    -----------------------------------------------------------------
         Definition                    Initial Value    Approx d2E/dq
    -----------------------------------------------------------------
      1. B(C   3,C   2)                  1.4882         0.435531   
      2. B(C   5,C   4)                  1.3926         0.618964   
      3. B(C   5,C   3)                  1.3973         0.608228   
      4. B(C   7,C   6)                  1.3933         0.617345   
      5. B(C   7,C   2)                  1.3966         0.609728   
      6. B(C   8,C   2)                  1.4061         0.588810   
      7. B(C   8,O   0)                  1.3633         0.617337   
      8. B(C   9,C   3)                  1.3970         0.609033   
      9. B(C  10,C   4)                  1.4025         0.596816   
     10. B(C  10,O   1)                  1.3753         0.590683   
     11. B(C  11,C   4)                  1.5151         0.394632   
     12. B(C  12,C   6)                  1.5178         0.390710   
     13. B(C  13,C   6)                  1.3940         0.615728   
     14. B(C  14,C   9)                  1.3877         0.630159   
     15. B(C  14,C  10)                  1.3902         0.624243   
     16. B(C  15,C  13)                  1.3876         0.630371   
     17. B(C  15,C   8)                  1.3939         0.615945   
     18. B(C  16,C  11)                  1.5065         0.407246   
     19. B(C  17,C  12)                  1.5034         0.411893   
     20. B(C  18,C  16)                  1.3305         0.777314   
     21. B(C  19,C  17)                  1.3276         0.785693   
     22. B(H  20,C   5)                  1.0833         0.369023   
     23. B(H  21,C   7)                  1.0841         0.367990   
     24. B(H  22,C   9)                  1.0831         0.369288   
     25. B(H  23,C  11)                  1.0956         0.352810   
     26. B(H  24,C  11)                  1.0931         0.356044   
     27. B(H  25,C  12)                  1.0950         0.353528   
     28. B(H  26,C  12)                  1.0952         0.353263   
     29. B(H  27,C  13)                  1.0843         0.367686   
     30. B(H  28,C  14)                  1.0825         0.370105   
     31. B(H  29,C  15)                  1.0831         0.369397   
     32. B(H  30,C  16)                  1.0872         0.363837   
     33. B(H  31,C  17)                  1.0873         0.363690   
     34. B(H  32,O   0)                  0.9703         0.500599   
     35. B(H  33,O   1)                  0.9697         0.501756   
     36. B(H  34,C  18)                  1.0827         0.369881   
     37. B(H  35,C  18)                  1.0857         0.365880   
     38. B(H  36,C  19)                  1.0829         0.369604   
     39. B(H  37,C  19)                  1.0850         0.366754   
     40. B(H  38,O   1)                  2.1162         0.007436   
     41. B(H  38,H  33)                  2.4284         0.000505   
     42. B(H  39,H  28)                  2.3947         0.000571   
     43. B(C  41,O  40)                  1.4351         0.474179   
     44. B(C  41,H  39)                  1.0896         0.360665   
     45. B(C  42,C  41)                  1.5251         0.380305   
     46. B(C  42,H  38)                  1.0874         0.363577   
     47. B(C  43,O  40)                  1.3438         0.663118   
     48. B(O  44,H  32)                  1.9123         0.015728   
     49. B(O  44,C  43)                  1.1892         1.169955   
     50. B(O  45,H  38)                  2.0396         0.009853   
     51. B(O  45,C  43)                  1.3672         0.608564   
     52. B(O  45,C  42)                  1.4019         0.535698   
     53. B(F  46,C  42)                  1.3770         0.545445   
     54. B(F  46,H  38)                  1.9977         0.010676   
     55. B(H  47,C  41)                  1.0875         0.363404   
     56. B(H  49,H  29)                  2.6535         0.000221   
     57. B(H  49,C  15)                  2.5505         0.001683   
     58. B(C  50,H  49)                  1.0901         0.359958   
     59. B(C  50,H  48)                  1.0877         0.363163   
     60. B(C  52,F  51)                  1.3798         0.539730   
     61. B(C  52,C  50)                  1.5257         0.379576   
     62. B(H  53,C  52)                  1.0870         0.364134   
     63. B(H  53,F  51)                  2.0056         0.010372   
     64. B(H  53,O  44)                  2.6022         0.001247   
     65. B(H  53,O   0)                  2.2636         0.004327   
     66. B(H  53,H  32)                  2.2237         0.001071   
     67. B(O  54,C  50)                  1.4352         0.473906   
     68. B(O  55,C  52)                  1.4022         0.534982   
     69. B(O  55,H  53)                  2.0436         0.009709   
     70. B(C  56,O  55)                  1.3686         0.605384   
     71. B(C  56,O  54)                  1.3480         0.652853   
     72. B(C  56,H  20)                  2.4614         0.002336   
     73. B(O  57,C  56)                  1.1878         1.176028   
     74. B(O  57,H  20)                  2.0671         0.008904   
     75. A(C   8,O   0,H  53)          113.0623         0.184001   
     76. A(H  32,O   0,H  53)           75.2231         0.167087   
     77. A(C   8,O   0,H  32)          112.5141         0.367441   
     78. A(C  10,O   1,H  33)          109.6372         0.364818   
     79. A(C  10,O   1,H  38)          109.4345         0.195322   
     80. A(H  33,O   1,H  38)           96.7001         0.177316   
     81. A(C   3,C   2,C   7)          120.3473         0.406355   
     82. A(C   3,C   2,C   8)          121.4802         0.403858   
     83. A(C   7,C   2,C   8)          118.1703         0.428771   
     84. A(C   5,C   3,C   9)          118.0475         0.431187   
     85. A(C   2,C   3,C   9)          121.3609         0.406274   
     86. A(C   2,C   3,C   5)          120.5906         0.406179   
     87. A(C  10,C   4,C  11)          121.3583         0.397851   
     88. A(C   5,C   4,C  10)          117.9279         0.430973   
     89. A(C   5,C   4,C  11)          120.6831         0.400408   
     90. A(C   3,C   5,C   4)          122.4820         0.432442   
     91. A(C   4,C   5,H  20)          118.4677         0.354275   
     92. A(C   3,C   5,H  20)          118.9922         0.353226   
     93. A(C   7,C   6,C  12)          120.9621         0.399521   
     94. A(C  12,C   6,C  13)          121.3502         0.399337   
     95. A(C   7,C   6,C  13)          117.6784         0.433192   
     96. A(C   2,C   7,H  21)          118.1124         0.353206   
     97. A(C   6,C   7,H  21)          119.1340         0.353949   
     98. A(C   2,C   7,C   6)          122.7511         0.432430   
     99. A(C   2,C   8,C  15)          119.7829         0.429552   
    100. A(O   0,C   8,C   2)          123.6498         0.426922   
    101. A(O   0,C   8,C  15)          116.5500         0.430386   
    102. A(C   3,C   9,C  14)          120.6972         0.433942   
    103. A(C   3,C   9,H  22)          119.8228         0.353348   
    104. A(C  14,C   9,H  22)          119.4723         0.355396   
    105. A(C   4,C  10,C  14)          120.6043         0.431631   
    106. A(O   1,C  10,C   4)          122.1752         0.424588   
    107. A(O   1,C  10,C  14)          117.1735         0.428018   
    108. A(C   4,C  11,C  16)          113.6884         0.372257   
    109. A(H  23,C  11,H  24)          106.2902         0.289393   
    110. A(C  16,C  11,H  24)          109.1031         0.328346   
    111. A(C   4,C  11,H  24)          108.1561         0.326648   
    112. A(C  16,C  11,H  23)          109.2563         0.327852   
    113. A(C   4,C  11,H  23)          110.0733         0.326157   
    114. A(H  25,C  12,H  26)          106.3726         0.289130   
    115. A(C  17,C  12,H  26)          109.0075         0.328536   
    116. A(C   6,C  12,H  26)          108.2367         0.325691   
    117. A(C  17,C  12,H  25)          109.0980         0.328577   
    118. A(C   6,C  12,H  25)          110.1006         0.325731   
    119. A(C   6,C  12,C  17)          113.7552         0.372344   
    120. A(C   6,C  13,C  15)          121.0913         0.434822   
    121. A(C  15,C  13,H  27)          119.1988         0.355155   
    122. A(C   6,C  13,H  27)          119.7098         0.353742   
    123. A(C  10,C  14,H  28)          118.9548         0.354961   
    124. A(C   9,C  14,H  28)          120.8266         0.355530   
    125. A(C   9,C  14,C  10)          120.2180         0.435873   
    126. A(C   8,C  15,H  49)           80.1792         0.167234   
    127. A(C  13,C  15,H  29)          121.0044         0.355434   
    128. A(C   8,C  15,H  29)          118.4841         0.354042   
    129. A(C   8,C  15,C  13)          120.5115         0.434850   
    130. A(C  13,C  15,H  49)          106.2803         0.167645   
    131. A(H  29,C  15,H  49)           83.3742         0.149270   
    132. A(C  11,C  16,H  30)          115.6369         0.329522   
    133. A(C  11,C  16,C  18)          125.2207         0.419229   
    134. A(C  18,C  16,H  30)          119.1415         0.367418   
    135. A(C  12,C  17,C  19)          125.1121         0.420882   
    136. A(C  19,C  17,H  31)          119.2274         0.368068   
    137. A(C  12,C  17,H  31)          115.6594         0.330118   
    138. A(H  34,C  18,H  35)          116.7501         0.292801   
    139. A(C  16,C  18,H  35)          121.5999         0.367770   
    140. A(C  16,C  18,H  34)          121.6292         0.368458   
    141. A(C  17,C  19,H  37)          121.5958         0.368599   
    142. A(C  17,C  19,H  36)          121.6071         0.369089   
    143. A(H  36,C  19,H  37)          116.7967         0.292876   
    144. A(C  56,H  20,O  57)           28.7624         0.116606   
    145. A(C   5,H  20,C  56)          125.7653         0.153891   
    146. A(C   5,H  20,O  57)          144.5482         0.175823   
    147. A(C  14,H  28,H  39)          110.0098         0.126753   
    148. A(C  15,H  29,H  49)           72.7069         0.119431   
    149. A(O  44,H  32,H  53)           77.5735         0.110044   
    150. A(O   0,H  32,H  53)           79.8211         0.135055   
    151. A(O   0,H  32,O  44)          147.2112         0.193578   
    152. A(O   1,H  33,H  38)           59.9353         0.127867   
    153. A(O   1,H  38,H  33)           23.3646         0.103982   
    154. A(H  33,H  38,C  42)          140.0926         0.125560   
    155. A(O   1,H  38,C  42)          119.1299         0.172074   
    156. A(H  28,H  39,C  41)          124.8422         0.126533   
    157. A(C  41,O  40,C  43)          109.6876         0.413323   
    158. A(H  39,C  41,O  40)          109.1470         0.335413   
    159. A(C  42,C  41,H  47)          111.8891         0.325761   
    160. A(O  40,C  41,H  47)          109.2185         0.335835   
    161. A(H  39,C  41,H  47)          111.2377         0.291329   
    162. A(O  40,C  41,C  42)          103.2650         0.377347   
    163. A(H  39,C  41,C  42)          111.7403         0.325356   
    164. A(O  45,C  42,F  46)          108.9689         0.406200   
    165. A(C  41,C  42,F  46)          110.9109         0.384969   
    166. A(H  38,C  42,F  46)          107.7416         0.342387   
    167. A(C  41,C  42,O  45)          103.8321         0.385419   
    168. A(H  38,C  42,O  45)          109.3899         0.342772   
    169. A(H  38,C  42,C  41)          115.8118         0.325786   
    170. A(O  44,C  43,O  45)          124.0776         0.479224   
    171. A(O  40,C  43,O  45)          110.2578         0.432166   
    172. A(O  40,C  43,O  44)          125.6631         0.486881   
    173. A(H  32,O  44,H  53)           56.5663         0.115924   
    174. A(C  43,O  44,H  53)          152.5106         0.171848   
    175. A(H  32,O  44,C  43)          138.5621         0.236038   
    176. A(C  42,O  45,C  43)          110.2245         0.415986   
    177. A(C  15,H  49,C  50)          156.6108         0.148917   
    178. A(C  15,H  49,H  29)           23.9189         0.097982   
    179. A(H  29,H  49,C  50)          161.6482         0.119253   
    180. A(C  52,C  50,O  54)          103.4347         0.377184   
    181. A(H  49,C  50,O  54)          109.0988         0.335271   
    182. A(H  48,C  50,O  54)          109.2499         0.335766   
    183. A(H  49,C  50,C  52)          112.0405         0.325148   
    184. A(H  48,C  50,C  52)          111.8847         0.325622   
    185. A(H  48,C  50,H  49)          110.8271         0.291209   
    186. A(H  53,C  52,O  55)          109.7172         0.342783   
    187. A(F  51,C  52,O  55)          108.7472         0.405349   
    188. A(C  50,C  52,O  55)          103.5923         0.385200   
    189. A(F  51,C  52,H  53)          108.2014         0.341871   
    190. A(C  50,C  52,H  53)          115.9563         0.325765   
    191. A(C  50,C  52,F  51)          110.3952         0.384136   
    192. A(O  44,H  53,C  52)          124.3158         0.144475   
    193. A(O   0,H  53,H  32)           24.9559         0.104713   
    194. A(O   0,H  53,C  52)          128.9749         0.162516   
    195. A(H  32,H  53,C  52)          128.7728         0.132359   
    196. A(O   0,H  53,O  44)           69.2317         0.109104   
    197. A(H  32,H  53,O  44)           45.8603         0.100857   
    198. A(C  50,O  54,C  56)          109.6323         0.412137   
    199. A(C  52,O  55,C  56)          110.3072         0.415500   
    200. A(H  20,C  56,O  57)           56.8642         0.185731   
    201. A(H  20,C  56,O  55)           88.6121         0.172233   
    202. A(H  20,C  56,O  54)          129.4344         0.173667   
    203. A(O  55,C  56,O  57)          124.2371         0.479219   
    204. A(O  54,C  56,O  57)          125.7127         0.485943   
    205. A(O  54,C  56,O  55)          110.0448         0.430551   
    206. A(H  20,O  57,C  56)           94.3735         0.218424   
    207. D(C   9,C   3,C   2,C   8)    -63.8320         0.012950   
    208. D(C   5,C   3,C   2,C   8)    116.5360         0.012950   
    209. D(C   5,C   3,C   2,C   7)    -62.9191         0.012950   
    210. D(C   9,C   3,C   2,C   7)    116.7129         0.012950   
    211. D(H  20,C   5,C   3,C   2)     -1.8211         0.025541   
    212. D(H  20,C   5,C   4,C  10)   -178.5431         0.026505   
    213. D(C   4,C   5,C   3,C   2)   -179.0047         0.025541   
    214. D(C   3,C   5,C   4,C  10)     -1.3454         0.026505   
    215. D(H  20,C   5,C   3,C   9)    178.5350         0.025541   
    216. D(C   3,C   5,C   4,C  11)    176.6666         0.026505   
    217. D(H  20,C   5,C   4,C  11)     -0.5311         0.026505   
    218. D(C   4,C   5,C   3,C   9)      1.3514         0.025541   
    219. D(C   6,C   7,C   2,C   8)      1.1257         0.025675   
    220. D(H  21,C   7,C   2,C   8)   -179.4627         0.025675   
    221. D(C   6,C   7,C   2,C   3)   -179.4014         0.025675   
    222. D(H  21,C   7,C   6,C  12)     -0.6829         0.026358   
    223. D(H  21,C   7,C   2,C   3)      0.0102         0.025675   
    224. D(C   2,C   7,C   6,C  12)    178.7230         0.026358   
    225. D(H  21,C   7,C   6,C  13)   -179.5889         0.026358   
    226. D(C   2,C   7,C   6,C  13)     -0.1830         0.026358   
    227. D(C  15,C   8,O   0,H  32)    174.6530         0.030839   
    228. D(O   0,C   8,C   2,C   7)    177.0057         0.023854   
    229. D(O   0,C   8,C   2,C   3)     -2.4609         0.023854   
    230. D(C  15,C   8,C   2,C   3)    179.1049         0.023854   
    231. D(C   2,C   8,O   0,H  53)    -86.7277         0.030839   
    232. D(C  15,C   8,C   2,C   7)     -1.4285         0.023854   
    233. D(C  15,C   8,O   0,H  53)     91.7531         0.030839   
    234. D(C   2,C   8,O   0,H  32)     -3.8279         0.030839   
    235. D(C  14,C   9,C   3,C   2)   -179.7283         0.025613   
    236. D(C  14,C   9,C   3,C   5)     -0.0873         0.025613   
    237. D(H  22,C   9,C   3,C   2)     -0.7426         0.025613   
    238. D(H  22,C   9,C   3,C   5)    178.8984         0.025613   
    239. D(C  14,C  10,C   4,C  11)   -177.9164         0.024541   
    240. D(C  14,C  10,C   4,C   5)      0.0814         0.024541   
    241. D(O   1,C  10,C   4,C   5)    177.5168         0.024541   
    242. D(O   1,C  10,C   4,C  11)     -0.4810         0.024541   
    243. D(C  14,C  10,O   1,H  33)   -156.8702         0.028053   
    244. D(C   4,C  10,O   1,H  38)    -79.2964         0.028053   
    245. D(C   4,C  10,O   1,H  33)     25.6110         0.028053   
    246. D(C  14,C  10,O   1,H  38)     98.2224         0.028053   
    247. D(H  23,C  11,C   4,C   5)   -115.7068         0.011572   
    248. D(H  24,C  11,C   4,C   5)      0.0230         0.011572   
    249. D(C  16,C  11,C   4,C   5)    121.3540         0.011572   
    250. D(C  16,C  11,C   4,C  10)    -60.7030         0.011572   
    251. D(H  23,C  11,C   4,C  10)     62.2362         0.011572   
    252. D(H  26,C  12,C   6,C   7)    176.2898         0.011355   
    253. D(H  25,C  12,C   6,C  13)    111.0440         0.011355   
    254. D(C  17,C  12,C   6,C  13)   -126.1550         0.011355   
    255. D(H  25,C  12,C   6,C   7)    -67.8216         0.011355   
    256. D(C  17,C  12,C   6,C   7)     54.9794         0.011355   
    257. D(H  27,C  13,C   6,C  12)      0.5210         0.026212   
    258. D(H  27,C  13,C   6,C   7)    179.4226         0.026212   
    259. D(C  15,C  13,C   6,C  12)   -179.3680         0.026212   
    260. D(C  15,C  13,C   6,C   7)     -0.4665         0.026212   
    261. D(C   9,C  14,C  10,C   4)      1.1343         0.026987   
    262. D(C   9,C  14,C  10,O   1)   -176.4257         0.026987   
    263. D(H  28,C  14,C   9,H  22)     -0.3994         0.027534   
    264. D(H  28,C  14,C  10,C   4)   -178.5915         0.026987   
    265. D(H  28,C  14,C   9,C   3)    178.5898         0.027534   
    266. D(C  10,C  14,C   9,H  22)    179.8800         0.027534   
    267. D(H  28,C  14,C  10,O   1)      3.8485         0.026987   
    268. D(C  10,C  14,C   9,C   3)     -1.1307         0.027534   
    269. D(C  13,C  15,C   8,O   0)   -177.7132         0.028503   
    270. D(H  49,C  15,C  13,C   6)    -87.9010         0.029947   
    271. D(H  29,C  15,C  13,C   6)   -179.9222         0.029947   
    272. D(C   8,C  15,C  13,H  27)   -179.7474         0.029947   
    273. D(C   8,C  15,C  13,C   6)      0.1422         0.029947   
    274. D(H  29,C  15,C   8,C   2)   -179.1074         0.028503   
    275. D(H  49,C  15,C   8,O   0)    -74.5208         0.028503   
    276. D(H  29,C  15,C  13,H  27)      0.1882         0.029947   
    277. D(H  29,C  15,C   8,O   0)      2.3497         0.028503   
    278. D(C  13,C  15,C   8,C   2)      0.8298         0.028503   
    279. D(H  30,C  16,C  11,H  23)   -178.0028         0.012290   
    280. D(H  30,C  16,C  11,C   4)    -54.6167         0.012290   
    281. D(C  18,C  16,C  11,H  24)   -114.1659         0.012290   
    282. D(C  18,C  16,C  11,H  23)      1.6470         0.012290   
    283. D(C  18,C  16,C  11,C   4)    125.0330         0.012290   
    284. D(H  31,C  17,C  12,H  25)    179.7289         0.012561   
    285. D(H  31,C  17,C  12,C   6)     56.3798         0.012561   
    286. D(C  19,C  17,C  12,H  26)    115.8744         0.012561   
    287. D(C  19,C  17,C  12,H  25)      0.1034         0.012561   
    288. D(C  19,C  17,C  12,C   6)   -123.2458         0.012561   
    289. D(H  34,C  18,C  16,C  11)    179.4768         0.043398   
    290. D(H  34,C  18,C  16,H  30)     -0.8847         0.043398   
    291. D(H  35,C  18,C  16,H  30)   -179.1717         0.043398   
    292. D(H  35,C  18,C  16,C  11)      1.1898         0.043398   
    293. D(H  37,C  19,C  17,H  31)   -179.5182         0.044438   
    294. D(H  37,C  19,C  17,C  12)      0.0950         0.044438   
    295. D(H  36,C  19,C  17,H  31)      0.7074         0.044438   
    296. D(H  36,C  19,C  17,C  12)   -179.6794         0.044438   
    297. D(C  56,H  20,C   5,C   4)    102.4218         0.128940   
    298. D(C  56,H  20,C   5,C   3)    -74.8757         0.128940   
    299. D(O  57,H  20,C   5,C   4)     70.7430         0.128940   
    300. D(O  57,H  20,C   5,C   3)   -106.5545         0.128940   
    301. D(H  39,H  28,C  14,C  10)    -50.9980         0.117196   
    302. D(H  39,H  28,C  14,C   9)    129.2780         0.117196   
    303. D(H  49,H  29,C  15,C  13)    105.0378         0.129260   
    304. D(H  49,H  29,C  15,C   8)    -75.0254         0.129260   
    305. D(H  53,H  32,O   0,C   8)   -109.2212         0.347702   
    306. D(O  44,H  32,O   0,H  53)    -46.9655         0.347702   
    307. D(O  44,H  32,O   0,C   8)   -156.1867         0.347702   
    308. D(H  38,H  33,O   1,C  10)   -113.4296         0.315400   
    309. D(C  42,H  38,H  33,O   1)     31.3027         0.001503   
    310. D(H  33,H  38,O   1,C  10)    113.5949         0.001538   
    311. D(C  42,H  38,O   1,H  33)   -157.5680         0.001538   
    312. D(C  42,H  38,O   1,C  10)    -43.9731         0.001538   
    313. D(C  41,H  39,H  28,C  14)    -44.5371         0.001503   
    314. D(H  47,C  41,O  40,C  43)   -132.7085         0.017729   
    315. D(C  42,C  41,O  40,C  43)    -13.5114         0.017729   
    316. D(H  39,C  41,O  40,C  43)    105.4808         0.017729   
    317. D(H  47,C  41,H  39,H  28)   -151.0224         0.121934   
    318. D(C  42,C  41,H  39,H  28)     83.1340         0.121934   
    319. D(O  40,C  41,H  39,H  28)    -30.4406         0.121934   
    320. D(O  45,C  42,C  41,H  47)    133.5678         0.011526   
    321. D(O  45,C  42,C  41,O  40)     16.2332         0.011526   
    322. D(H  38,C  42,C  41,H  47)   -106.5054         0.011526   
    323. D(H  38,C  42,C  41,O  40)    136.1599         0.011526   
    324. D(H  38,C  42,C  41,H  39)     18.9795         0.011526   
    325. D(F  46,C  42,H  38,H  33)    167.0162         0.156288   
    326. D(F  46,C  42,H  38,O   1)   -179.3402         0.156288   
    327. D(O  45,C  42,H  38,H  33)     48.6950         0.156288   
    328. D(O  45,C  42,C  41,H  39)   -100.9473         0.011526   
    329. D(O  45,C  42,H  38,O   1)     62.3387         0.156288   
    330. D(C  41,C  42,H  38,H  33)    -68.1627         0.156288   
    331. D(C  41,C  42,H  38,O   1)    -54.5190         0.156288   
    332. D(O  45,C  43,O  40,C  41)      5.5080         0.032607   
    333. D(O  44,C  43,O  40,C  41)   -174.0560         0.032607   
    334. D(H  53,O  44,C  43,O  45)     15.3968         0.130841   
    335. D(H  53,O  44,C  43,O  40)   -165.0970         0.130841   
    336. D(H  32,O  44,C  43,O  45)    -96.5273         0.130841   
    337. D(H  32,O  44,C  43,O  40)     82.9789         0.130841   
    338. D(H  53,O  44,H  32,O   0)     47.4508         0.001644   
    339. D(C  43,O  44,H  32,H  53)    149.1288         0.001644   
    340. D(C  43,O  44,H  32,O   0)   -163.4204         0.001644   
    341. D(C  42,O  45,C  43,O  44)   -174.4397         0.029904   
    342. D(C  42,O  45,C  43,O  40)      5.9880         0.029904   
    343. D(C  43,O  45,C  42,F  46)    104.3240         0.024769   
    344. D(C  43,O  45,C  42,C  41)    -13.9255         0.024769   
    345. D(C  43,O  45,C  42,H  38)   -138.1227         0.024769   
    346. D(C  50,H  49,H  29,C  15)    113.1570         0.001501   
    347. D(H  29,H  49,C  15,C  13)   -120.4180         0.001502   
    348. D(H  29,H  49,C  15,C   8)    120.4888         0.001502   
    349. D(C  50,H  49,C  15,H  29)   -133.1788         0.001502   
    350. D(C  50,H  49,C  15,C  13)    106.4032         0.001502   
    351. D(C  50,H  49,C  15,C   8)    -12.6900         0.001502   
    352. D(O  54,C  50,H  49,C  15)    -70.1611         0.132360   
    353. D(C  52,C  50,H  49,H  29)    -26.1343         0.132360   
    354. D(C  52,C  50,H  49,C  15)     43.7574         0.132360   
    355. D(H  48,C  50,H  49,H  29)     99.6155         0.132360   
    356. D(H  48,C  50,H  49,C  15)    169.5072         0.132360   
    357. D(H  53,C  52,C  50,O  54)    137.1109         0.011484   
    358. D(H  53,C  52,C  50,H  49)     19.7474         0.011484   
    359. D(H  53,C  52,C  50,H  48)   -105.4219         0.011484   
    360. D(F  51,C  52,C  50,O  54)    -99.4107         0.011484   
    361. D(F  51,C  52,C  50,H  49)    143.2258         0.011484   
    362. D(F  51,C  52,C  50,H  48)     18.0566         0.011484   
    363. D(O  44,H  53,C  52,F  51)     92.0709         0.166490   
    364. D(O  44,H  53,C  52,C  50)   -143.3137         0.166490   
    365. D(O   0,H  53,C  52,O  55)     63.5660         0.166490   
    366. D(O   0,H  53,C  52,C  50)    -53.3136         0.166490   
    367. D(H  32,H  53,C  52,O  55)     31.3416         0.166490   
    368. D(H  32,H  53,C  52,F  51)    149.8466         0.166490   
    369. D(O   0,H  53,O  44,H  32)    -10.5389         0.001501   
    370. D(O   0,H  53,O  44,C  43)   -143.1738         0.001501   
    371. D(H  32,H  53,O  44,C  43)   -132.6349         0.001501   
    372. D(C  52,H  53,O  44,H  32)    113.2135         0.001501   
    373. D(C  52,H  53,O  44,C  43)    -19.4214         0.001501   
    374. D(O  44,H  53,H  32,O   0)   -156.0880         0.001515   
    375. D(O   0,H  53,H  32,O  44)    156.0880         0.001515   
    376. D(H  32,H  53,C  52,C  50)    -85.5380         0.166490   
    377. D(C  52,H  53,H  32,O  44)   -103.1869         0.001515   
    378. D(C  52,H  53,H  32,O   0)    100.7251         0.001515   
    379. D(O  44,H  53,O   0,H  32)     18.1255         0.001514   
    380. D(O   0,H  53,C  52,F  51)   -177.9290         0.166490   
    381. D(O  44,H  53,O   0,C   8)    126.6735         0.001514   
    382. D(H  32,H  53,O   0,C   8)    108.5481         0.001514   
    383. D(C  52,H  53,O   0,H  32)    -99.8265         0.001514   
    384. D(C  52,H  53,O   0,C   8)      8.7216         0.001514   
    385. D(C  56,O  54,C  50,C  52)    -12.9685         0.017708   
    386. D(C  56,O  54,C  50,H  49)    106.4383         0.017708   
    387. D(C  56,O  54,C  50,H  48)   -132.2656         0.017708   
    388. D(C  56,O  55,C  52,H  53)   -139.9228         0.024699   
    389. D(C  56,O  55,C  52,F  51)    101.9104         0.024699   
    390. D(C  56,O  55,C  52,C  50)    -15.5208         0.024699   
    391. D(H  20,C  56,O  55,C  52)    139.9265         0.032147   
    392. D(O  57,C  56,O  55,C  52)   -172.7519         0.032147   
    393. D(O  54,C  56,O  55,C  52)      8.0513         0.032147   
    394. D(H  20,C  56,O  54,C  50)   -101.5576         0.034810   
    395. D(O  57,C  56,O  54,C  50)   -175.2729         0.034810   
    396. D(O  55,C  56,O  54,C  50)      3.9092         0.034810   
    397. D(O  57,C  56,H  20,C   5)   -140.7260         0.001503   
    398. D(O  55,C  56,H  20,O  57)    133.4637         0.001503   
    399. D(O  55,C  56,H  20,C   5)     -7.2623         0.001503   
    400. D(O  54,C  56,H  20,O  57)   -111.4499         0.001503   
    401. D(O  54,C  56,H  20,C   5)    107.8241         0.001503   
    402. D(H  20,O  57,C  56,O  55)    -61.3644         0.132446   
    403. D(H  20,O  57,C  56,O  54)    117.7062         0.132446   
    404. D(C  56,O  57,H  20,C   5)     62.3230         0.001541   
    -----------------------------------------------------------------

Number of atoms                         .... 58
Number of degrees of freedom            .... 404


         *************************************************************
         *                GEOMETRY OPTIMIZATION CYCLE   1            *
         *************************************************************
---------------------------------
CARTESIAN COORDINATES (ANGSTROEM)
---------------------------------
  O      1.662703    1.849068    2.154982
  O     -3.631510   -1.526749    2.056643
  C      1.481997    0.208941    0.355671
  C      0.138733   -0.264033    0.787836
  C     -2.255744   -0.486987    0.342378
  C     -0.977976   -0.078509   -0.031332
  C      3.346558    0.068770   -1.225783
  C      2.086477   -0.328031   -0.783137
  C      2.172127    1.207727    1.065178
  C     -0.045217   -0.909955    2.012757
  C     -2.403783   -1.131929    1.578930
  C     -3.449874   -0.198553   -0.544361
  C      3.977633   -0.562742   -2.453231
  C      4.013396    1.046471   -0.489164
  C     -1.303030   -1.350340    2.399546
  C      3.436754    1.610928    0.639665
  C     -4.191898   -1.434686   -0.981332
  C      3.117174   -0.486534   -3.683708
  C     -5.492490   -1.651996   -0.803612
  C      2.721966   -1.528783   -4.404901
  H     -0.857193    0.441837   -0.973813
  H      1.549695   -1.091687   -1.334469
  H      0.803696   -1.084845    2.662338
  H     -4.143739    0.477382   -0.032570
  H     -3.095832    0.337524   -1.428729
  H      4.224076   -1.610653   -2.252723
  H      4.927543   -0.054431   -2.650185
  H      4.999945    1.373043   -0.798733
  H     -1.444097   -1.871185    3.338010
  H      3.955605    2.371367    1.210232
  H     -3.590482   -2.195024   -1.473435
  H      2.804704    0.512275   -3.978602
  H      0.750331    1.582547    2.350125
  H     -4.238705   -1.671615    1.314589
  H     -5.968776   -2.560735   -1.149436
  H     -6.132819   -0.914734   -0.329170
  H      2.105023   -1.407684   -5.286609
  H      3.004654   -2.542584   -4.141167
  H     -4.638355    0.144036    2.876973
  H     -3.229757   -0.862722    4.574499
  O     -2.087768    0.856237    4.690276
  C     -3.369114    0.210138    4.703804
  C     -4.088230    0.834046    3.512309
  C     -1.914913    1.494484    3.520426
  O     -0.917445    2.037532    3.167640
  O     -3.056603    1.427291    2.771312
  F     -4.963688    1.813673    3.924568
  H     -3.871902    0.431795    5.642292
  H      1.369501    5.187412   -0.622783
  H      2.051012    3.589625   -0.178728
  C      1.144500    4.141113   -0.428594
  F     -0.633731    5.159470    0.796035
  C      0.064335    3.979943    0.636728
  H      0.406304    3.652976    1.615323
  O      0.548763    3.560270   -1.598057
  O     -0.796357    3.017159    0.090333
  C     -0.554559    2.869070   -1.248565
  O     -1.220903    2.211000   -1.979236

----------------------------
CARTESIAN COORDINATES (A.U.)
----------------------------
  NO LB      ZA    FRAG     MASS         X           Y           Z
   0 O     8.0000    0    15.999    3.142052    3.494232    4.072325
   1 O     8.0000    0    15.999   -6.862559   -2.885137    3.886491
   2 C     6.0000    0    12.011    2.800568    0.394842    0.672121
   3 C     6.0000    0    12.011    0.262167   -0.498949    1.488794
   4 C     6.0000    0    12.011   -4.262738   -0.920272    0.647001
   5 C     6.0000    0    12.011   -1.848107   -0.148360   -0.059208
   6 C     6.0000    0    12.011    6.324077    0.129957   -2.316394
   7 C     6.0000    0    12.011    3.942870   -0.619889   -1.479914
   8 C     6.0000    0    12.011    4.104725    2.282273    2.012894
   9 C     6.0000    0    12.011   -0.085447   -1.719567    3.803559
  10 C     6.0000    0    12.011   -4.542491   -2.139037    2.983746
  11 C     6.0000    0    12.011   -6.519317   -0.375211   -1.028693
  12 C     6.0000    0    12.011    7.516636   -1.063428   -4.635934
  13 C     6.0000    0    12.011    7.584220    1.977544   -0.924386
  14 C     6.0000    0    12.011   -2.462369   -2.551773    4.534485
  15 C     6.0000    0    12.011    6.494523    3.044212    1.208792
  16 C     6.0000    0    12.011   -7.921540   -2.711163   -1.854449
  17 C     6.0000    0    12.011    5.890606   -0.919417   -6.961200
  18 C     6.0000    0    12.011  -10.379303   -3.121819   -1.518607
  19 C     6.0000    0    12.011    5.143770   -2.888981   -8.324056
  20 H     1.0000    0     1.008   -1.619861    0.834951   -1.840241
  21 H     1.0000    0     1.008    2.928500   -2.062990   -2.521782
  22 H     1.0000    0     1.008    1.518765   -2.050059    5.031090
  23 H     1.0000    0     1.008   -7.830531    0.902122   -0.061548
  24 H     1.0000    0     1.008   -5.850275    0.637828   -2.699907
  25 H     1.0000    0     1.008    7.982347   -3.043694   -4.257029
  26 H     1.0000    0     1.008    9.311708   -0.102859   -5.008123
  27 H     1.0000    0     1.008    9.448527    2.594676   -1.509386
  28 H     1.0000    0     1.008   -2.728949   -3.536027    6.307924
  29 H     1.0000    0     1.008    7.475010    4.481235    2.287007
  30 H     1.0000    0     1.008   -6.785027   -4.147993   -2.784388
  31 H     1.0000    0     1.008    5.300122    0.968059   -7.518469
  32 H     1.0000    0     1.008    1.417921    2.990581    4.441092
  33 H     1.0000    0     1.008   -8.009992   -3.158894    2.484214
  34 H     1.0000    0     1.008  -11.279351   -4.839089   -2.172119
  35 H     1.0000    0     1.008  -11.589348   -1.728597   -0.622041
  36 H     1.0000    0     1.008    3.977918   -2.660137   -9.990243
  37 H     1.0000    0     1.008    5.677973   -4.804787   -7.825671
  38 H     1.0000    0     1.008   -8.765221    0.272188    5.436690
  39 H     1.0000    0     1.008   -6.103356   -1.630308    8.644550
  40 O     8.0000    0    15.999   -3.945310    1.618053    8.863337
  41 C     6.0000    0    12.011   -6.366703    0.397104    8.888902
  42 C     6.0000    0    12.011   -7.725635    1.576119    6.637302
  43 C     6.0000    0    12.011   -3.618661    2.824166    6.652641
  44 O     8.0000    0    15.999   -1.733720    3.850378    5.985972
  45 O     8.0000    0    15.999   -5.776142    2.697189    5.237022
  46 F     9.0000    0    18.998   -9.380011    3.427346    7.416358
  47 H     1.0000    0     1.008   -7.316834    0.815975   10.662387
  48 H     1.0000    0     1.008    2.587982    9.802789   -1.176889
  49 H     1.0000    0     1.008    3.875850    6.783409   -0.337748
  50 C     6.0000    0    12.011    2.162791    7.825569   -0.809925
  51 F     9.0000    0    18.998   -1.197579    9.749985    1.504288
  52 C     6.0000    0    12.011    0.121575    7.521003    1.203242
  53 H     1.0000    0     1.008    0.767803    6.903124    3.052518
  54 O     8.0000    0    15.999    1.037011    6.727935   -3.019889
  55 O     8.0000    0    15.999   -1.504896    5.701604    0.170704
  56 C     6.0000    0    12.011   -1.047964    5.421757   -2.359446
  57 O     8.0000    0    15.999   -2.307172    4.178185   -3.740214

--------------------------------
INTERNAL COORDINATES (ANGSTROEM)
--------------------------------
 O      0   0   0     0.000000000000     0.00000000     0.00000000
 O      1   0   0     6.279688711412     0.00000000     0.00000000
 C      1   2   0     2.441349716857    64.20866381     0.00000000
 C      3   1   2     1.488230029535    93.80129711   359.87836130
 C      2   1   3     2.431571301727    45.90619786   319.70198023
 C      5   2   1     1.392553180247   146.48933745    28.97378361
 C      3   1   2     2.448924574349   117.26083770   179.21886119
 C      7   3   1     1.393265849970    28.66235265   182.27622803
 C      1   2   3     1.363269378279    92.84411002   359.04891515
 C      4   3   1     1.396955771764   121.36094741   295.02180047
 C      2   1   3     1.375283686335    25.64352128   357.54948301
 C      5   2   1     1.515073228432    92.75642773   212.53845372
 C      7   3   1     1.517791797012   149.61288806   180.11111453
 C      7   3   1     1.393980012215    89.01621401     2.11410887
 C     10   4   3     1.387673528698   120.69718942   180.27167836
 C     14   7   3     1.387581943098   121.09129274   359.44572433
 C     12   5   2     1.506508389295   113.68839586   299.06643255
 C     13   7   3     1.503419862219   113.75517881    56.19027540
 C     17  12   5     1.330544043354   125.22069824   125.03303659
 C     18  13   7     1.327625685907   125.11212824   236.75422870
 H      6   5   2     1.083337376954   118.46769733   183.60994917
 H      8   7   3     1.084100371631   119.13396446   180.59413257
 H     10   4   3     1.083141402099   119.82278767   359.25739549
 H     12   5   2     1.095567066654   110.07329893    62.00570032
 H     12   5   2     1.093083421692   108.15614845   177.73543200
 H     13   7   3     1.095014166250   110.10061363   293.38924976
 H     13   7   3     1.095217775106   108.23674135   177.50070155
 H     14   7   3     1.084325281381   119.70983218   179.33477806
 H     15  10   4     1.082539939239   120.82663270   178.58980688
 H     16  14   7     1.083061329521   121.00435583   180.07777681
 H     17  12   5     1.087189287663   115.63690246   305.38326247
 H     18  13   7     1.087299453178   115.65942190    56.37975564
 H      1   2   3     0.970327396478    20.40998901   164.02966404
 H      2   1   3     0.969698943948   128.33057767   308.62215547
 H     19  17  12     1.082704802818   121.62915148   179.47680199
 H     19  17  12     1.085665689544   121.59991540     1.18978399
 H     20  18  13     1.082909172224   121.60714553   180.32060678
 H     20  18  13     1.085016044862   121.59578565     0.09504474
 H      2   1   3     2.116175596549    88.31619027   211.40938320
 H     29  15  10     2.394678051255   110.00977581   129.27799552
 O     40  29  15     2.066969419772    88.11817706   296.04347589
 C     40  29  15     1.089572955285   124.84216772   315.46291016
 C     39   2   1     1.087384074786   119.12989604   330.84155993
 C     41  40  29     1.343796187997   114.66403942    68.57985133
 O     44  41  40     1.189243854390   125.66313994   217.82016126
 O     44  41  40     1.367165428590   110.25778285    37.38420294
 F     43  39   2     1.376972467337   107.74164119   180.65980376
 H     42  40  29     1.087514141134   111.23771574   208.97756244
 H     30  16  14     4.240045560151    86.92640816   103.48354221
 H     49  30  16     1.792920740481    21.44316279     6.01813306
 C     49  30  16     1.087694042149    53.85072182    27.97941408
 F     51  49  30     2.387231473973    80.52158564   121.71837278
 C     52  51  49     1.379839969627    36.80036669   196.95380788
 H     53  52  51     1.086967652691   108.20138174   127.86512056
 O     51  49  30     1.435243465332   109.24994643   225.83733783
 O     53  52  51     1.402245001328   108.74718082   246.98536453
 C     55  51  49     1.348042916959   109.63234059   227.73437290
 O     57  55  51     1.187834396560   125.71274408   184.72706195

---------------------------
INTERNAL COORDINATES (A.U.)
---------------------------
 O      0   0   0     0.000000000000     0.00000000     0.00000000
 O      1   0   0    11.866891870845     0.00000000     0.00000000
 C      1   2   0     4.613482361985    64.20866381     0.00000000
 C      3   1   2     2.812347180098    93.80129711   359.87836130
 C      2   1   3     4.595003835366    45.90619786   319.70198023
 C      5   2   1     2.631544137588   146.48933745    28.97378361
 C      3   1   2     4.627796768149   117.26083770   179.21886119
 C      7   3   1     2.632890888188    28.66235265   182.27622803
 C      1   2   3     2.576205771709    92.84411002   359.04891515
 C      4   3   1     2.639863829835   121.36094741   295.02180047
 C      2   1   3     2.598909523622    25.64352128   357.54948301
 C      5   2   1     2.863073474573    92.75642773   212.53845372
 C      7   3   1     2.868210824665   149.61288806   180.11111453
 C      7   3   1     2.634240459246    89.01621401     2.11410887
 C     10   4   3     2.622322932532   120.69718942   180.27167836
 C     14   7   3     2.622149860829   121.09129274   359.44572433
 C     12   5   2     2.846888274223   113.68839586   299.06643255
 C     13   7   3     2.841051803892   113.75517881    56.19027540
 C     17  12   5     2.514363851060   125.22069824   125.03303659
 C     18  13   7     2.508848954724   125.11212824   236.75422870
 H      6   5   2     2.047210953083   118.46769733   183.60994917
 H      8   7   3     2.048652804064   119.13396446   180.59413257
 H     10   4   3     2.046840614279   119.82278767   359.25739549
 H     12   5   2     2.070321717319   110.07329893    62.00570032
 H     12   5   2     2.065628308527   108.15614845   177.73543200
 H     13   7   3     2.069276886976   110.10061363   293.38924976
 H     13   7   3     2.069661651953   108.23674135   177.50070155
 H     14   7   3     2.049077821897   119.70983218   179.33477806
 H     15  10   4     2.045704014194   120.82663270   178.58980688
 H     16  14   7     2.046689299035   121.00435583   180.07777681
 H     17  12   5     2.054490009416   115.63690246   305.38326247
 H     18  13   7     2.054698192069   115.65942190    56.37975564
 H      1   2   3     1.833653039584    20.40998901   164.02966404
 H      2   1   3     1.832465436415   128.33057767   308.62215547
 H     19  17  12     2.046015561207   121.62915148   179.47680199
 H     19  17  12     2.051610826233   121.59991540     1.18978399
 H     20  18  13     2.046401763414   121.60714553   180.32060678
 H     20  18  13     2.050383175699   121.59578565     0.09504474
 H      2   1   3     3.998992328765    88.31619027   211.40938320
 H     29  15  10     4.525285695784   110.00977581   129.27799552
 O     40  29  15     3.906006130559    88.11817706   296.04347589
 C     40  29  15     2.058994488415   124.84216772   315.46291016
 C     39   2   1     2.054858103734   119.12989604   330.84155993
 C     41  40  29     2.539406775122   114.66403942    68.57985133
 O     44  41  40     2.247345191247   125.66313994   217.82016126
 O     44  41  40     2.583568239800   110.25778285    37.38420294
 F     43  39   2     2.602100857217   107.74164119   180.65980376
 H     42  40  29     2.055103893509   111.23771574   208.97756244
 H     30  16  14     8.012524904034    86.92640816   103.48354221
 H     49  30  16     3.388129179337    21.44316279     6.01813306
 C     49  30  16     2.055443857159    53.85072182    27.97941408
 F     51  49  30     4.511213704086    80.52158564   121.71837278
 C     52  51  49     2.607519651234    36.80036669   196.95380788
 H     53  52  51     2.054071180018   108.20138174   127.86512056
 O     51  49  30     2.712217084978   109.24994643   225.83733783
 O     53  52  51     2.649859025170   108.74718082   246.98536453
 C     55  51  49     2.547431929825   109.63234059   227.73437290
 O     57  55  51     2.244681701949   125.71274408   184.72706195

---------------------
BASIS SET INFORMATION
---------------------
There are 4 groups of distinct atoms

 Group   1 Type O   : 11s6p2d1f contracted to 5s3p2d1f pattern {62111/411/11/1}
 Group   2 Type C   : 11s6p2d1f contracted to 5s3p2d1f pattern {62111/411/11/1}
 Group   3 Type H   : 5s1p contracted to 3s1p pattern {311/1}
 Group   4 Type F   : 11s6p2d1f contracted to 5s3p2d1f pattern {62111/411/11/1}

Atom   0O    basis set group =>   1
Atom   1O    basis set group =>   1
Atom   2C    basis set group =>   2
Atom   3C    basis set group =>   2
Atom   4C    basis set group =>   2
Atom   5C    basis set group =>   2
Atom   6C    basis set group =>   2
Atom   7C    basis set group =>   2
Atom   8C    basis set group =>   2
Atom   9C    basis set group =>   2
Atom  10C    basis set group =>   2
Atom  11C    basis set group =>   2
Atom  12C    basis set group =>   2
Atom  13C    basis set group =>   2
Atom  14C    basis set group =>   2
Atom  15C    basis set group =>   2
Atom  16C    basis set group =>   2
Atom  17C    basis set group =>   2
Atom  18C    basis set group =>   2
Atom  19C    basis set group =>   2
Atom  20H    basis set group =>   3
Atom  21H    basis set group =>   3
Atom  22H    basis set group =>   3
Atom  23H    basis set group =>   3
Atom  24H    basis set group =>   3
Atom  25H    basis set group =>   3
Atom  26H    basis set group =>   3
Atom  27H    basis set group =>   3
Atom  28H    basis set group =>   3
Atom  29H    basis set group =>   3
Atom  30H    basis set group =>   3
Atom  31H    basis set group =>   3
Atom  32H    basis set group =>   3
Atom  33H    basis set group =>   3
Atom  34H    basis set group =>   3
Atom  35H    basis set group =>   3
Atom  36H    basis set group =>   3
Atom  37H    basis set group =>   3
Atom  38H    basis set group =>   3
Atom  39H    basis set group =>   3
Atom  40O    basis set group =>   1
Atom  41C    basis set group =>   2
Atom  42C    basis set group =>   2
Atom  43C    basis set group =>   2
Atom  44O    basis set group =>   1
Atom  45O    basis set group =>   1
Atom  46F    basis set group =>   4
Atom  47H    basis set group =>   3
Atom  48H    basis set group =>   3
Atom  49H    basis set group =>   3
Atom  50C    basis set group =>   2
Atom  51F    basis set group =>   4
Atom  52C    basis set group =>   2
Atom  53H    basis set group =>   3
Atom  54O    basis set group =>   1
Atom  55O    basis set group =>   1
Atom  56C    basis set group =>   2
Atom  57O    basis set group =>   1
---------------------------------
AUXILIARY/J BASIS SET INFORMATION
---------------------------------
There are 4 groups of distinct atoms

 Group   1 Type O   : 12s5p4d2f1g contracted to 6s4p3d1f1g pattern {711111/2111/211/2/1}
 Group   2 Type C   : 12s5p4d2f1g contracted to 6s4p3d1f1g pattern {711111/2111/211/2/1}
 Group   3 Type H   : 5s2p1d contracted to 3s1p1d pattern {311/2/1}
 Group   4 Type F   : 12s5p4d2f1g contracted to 6s4p3d1f1g pattern {711111/2111/211/2/1}

Atom   0O    basis set group =>   1
Atom   1O    basis set group =>   1
Atom   2C    basis set group =>   2
Atom   3C    basis set group =>   2
Atom   4C    basis set group =>   2
Atom   5C    basis set group =>   2
Atom   6C    basis set group =>   2
Atom   7C    basis set group =>   2
Atom   8C    basis set group =>   2
Atom   9C    basis set group =>   2
Atom  10C    basis set group =>   2
Atom  11C    basis set group =>   2
Atom  12C    basis set group =>   2
Atom  13C    basis set group =>   2
Atom  14C    basis set group =>   2
Atom  15C    basis set group =>   2
Atom  16C    basis set group =>   2
Atom  17C    basis set group =>   2
Atom  18C    basis set group =>   2
Atom  19C    basis set group =>   2
Atom  20H    basis set group =>   3
Atom  21H    basis set group =>   3
Atom  22H    basis set group =>   3
Atom  23H    basis set group =>   3
Atom  24H    basis set group =>   3
Atom  25H    basis set group =>   3
Atom  26H    basis set group =>   3
Atom  27H    basis set group =>   3
Atom  28H    basis set group =>   3
Atom  29H    basis set group =>   3
Atom  30H    basis set group =>   3
Atom  31H    basis set group =>   3
Atom  32H    basis set group =>   3
Atom  33H    basis set group =>   3
Atom  34H    basis set group =>   3
Atom  35H    basis set group =>   3
Atom  36H    basis set group =>   3
Atom  37H    basis set group =>   3
Atom  38H    basis set group =>   3
Atom  39H    basis set group =>   3
Atom  40O    basis set group =>   1
Atom  41C    basis set group =>   2
Atom  42C    basis set group =>   2
Atom  43C    basis set group =>   2
Atom  44O    basis set group =>   1
Atom  45O    basis set group =>   1
Atom  46F    basis set group =>   4
Atom  47H    basis set group =>   3
Atom  48H    basis set group =>   3
Atom  49H    basis set group =>   3
Atom  50C    basis set group =>   2
Atom  51F    basis set group =>   4
Atom  52C    basis set group =>   2
Atom  53H    basis set group =>   3
Atom  54O    basis set group =>   1
Atom  55O    basis set group =>   1
Atom  56C    basis set group =>   2
Atom  57O    basis set group =>   1
--------------------------------------------------------------------------
WARNING: There was an error initializing an OpenFabrics device.

  Local host:   ga00
  Local device: mlx5_0
--------------------------------------------------------------------------
--------------------------------------------------------------------------
WARNING: There is at least one non-excluded one OpenFabrics device found,
but there are no active ports detected (or Open MPI was unable to use
them).  This is most certainly not what you wanted.  Check your
cables, subnet manager configuration, etc.  The openib BTL will be
ignored for this job.

  Local host: ga00
--------------------------------------------------------------------------


           ************************************************************
           *        Program running with 25 parallel MPI-processes    *
           *              working on a common directory               *
           ************************************************************
------------------------------------------------------------------------------
                             ORCA STARTUP CALCULATIONS
                           -- RI-GTO INTEGRALS CHOSEN --
------------------------------------------------------------------------------
------------------------------------------------------------------------------
                   ___                                                        
                  /   \      - P O W E R E D   B Y -                         
                 /     \                                                     
                 |  |  |   _    _      __       _____    __    __             
                 |  |  |  | |  | |    /  \     |  _  \  |  |  /  |          
                  \  \/   | |  | |   /    \    | | | |  |  | /  /          
                 / \  \   | |__| |  /  /\  \   | |_| |  |  |/  /          
                |  |  |   |  __  | /  /__\  \  |    /   |      \           
                |  |  |   | |  | | |   __   |  |    \   |  |\   \          
                \     /   | |  | | |  |  |  |  | |\  \  |  | \   \       
                 \___/    |_|  |_| |__|  |__|  |_| \__\ |__|  \__/        
                                                                              
                      - O R C A' S   B I G   F R I E N D -                    
                                      &                                       
                       - I N T E G R A L  F E E D E R -                       
                                                                              
 v1 FN, 2020, v2 2021, v3 2022-2024                                           
------------------------------------------------------------------------------


----------------------
SHARK INTEGRAL PACKAGE
----------------------

Number of atoms                             ...     58
Number of basis functions                   ...   1198
Number of shells                            ...    470
Maximum angular momentum                    ...      3
Integral batch strategy                     ... SHARK/LIBINT Hybrid
RI-J (if used) integral strategy            ... SPLIT-RIJ (Revised 2003 algorithm where possible)
Printlevel                                  ...      1
Contraction scheme used                     ... SEGMENTED contraction
Prescreening option                         ... SCHWARTZ
   Thresh                                   ... 2.500e-11
   Tcut                                     ... 2.500e-12
   Tpresel                                  ... 2.500e-12 
Coulomb Range Separation                    ... NOT USED
Exchange Range Separation                   ... NOT USED
Multipole approximations                    ... NOT USED
Finite Nucleus Model                        ... NOT USED
CABS basis                                  ... NOT available
Auxiliary Coulomb fitting basis             ... AVAILABLE
   # of basis functions in Aux-J            ...   1930
   # of shells in Aux-J                     ...    630
   Maximum angular momentum in Aux-J        ...      4
Auxiliary J/K fitting basis                 ... NOT available
Auxiliary Correlation fitting basis         ... NOT available
Auxiliary 'external' fitting basis          ... NOT available

Checking pre-screening integrals            ... done (  0.0 sec) Dimension = 470
Check shell pair data                       ... done (  0.0 sec)
Shell pair information
Shell pair cut-off parameter TPreSel        ...   2.5e-12
Total number of shell pairs                 ...    110685
Shell pairs after pre-screening             ...     68214
Total number of primitive shell pairs       ...    340720
Primitive shell pairs kept                  ...    132475
          la=0 lb=0:  17512 shell pairs
          la=1 lb=0:  20019 shell pairs
          la=1 lb=1:   5720 shell pairs
          la=2 lb=0:   9511 shell pairs
          la=2 lb=1:   5605 shell pairs
          la=2 lb=2:   1364 shell pairs
          la=3 lb=0:   4351 shell pairs
          la=3 lb=1:   2649 shell pairs
          la=3 lb=2:   1197 shell pairs
          la=3 lb=3:    286 shell pairs

Calculating one electron integrals          ... done (  0.1 sec)
Calculating RI/J V-Matrix + Cholesky decomp.... done (  0.2 sec)
Calculating Nuclear repulsion               ... done (  0.0 sec) ENN=   3873.242508732903 Eh

Diagonalization of the overlap matrix:
Smallest eigenvalue                        ... 4.111e-06
Time for diagonalization                   ...    0.242 sec
Threshold for overlap eigenvalues          ... 1.000e-07
Number of eigenvalues below threshold      ... 0
Time for construction of square roots      ...    0.107 sec
Total time needed                          ...    0.359 sec

-------------------
DFT GRID GENERATION
-------------------

General Integration Accuracy     IntAcc      ... 4.388
Radial Grid Type                 RadialGrid  ... OptM3 with GC (2021)
Angular Grid (max. ang.)         AngularGrid ... 4 (Lebedev-302)
Angular grid pruning method      GridPruning ... 4 (adaptive)
Weight generation scheme         WeightScheme... mBecke (2022)
Basis function cutoff            BFCut       ... 1.0000e-11
Integration weight cutoff        WCut        ... 1.0000e-14
Partially contracted basis set               ... off
Rotationally invariant grid construction     ... off
Angular grids for H and He will be reduced by one unit

Total number of grid points                  ...   278781
Total number of batches                      ...     4386
Average number of points per batch           ...       63
Average number of grid points per atom       ...     4807

--------------------
COSX GRID GENERATION
--------------------

GRIDX 1
-------
General Integration Accuracy     IntAcc      ... 3.816
Radial Grid Type                 RadialGrid  ... OptM3 with GC (2021)
Angular Grid (max. ang.)         AngularGrid ... 1 (Lebedev-50)
Angular grid pruning method      GridPruning ... 4 (adaptive)
Weight generation scheme         WeightScheme... mBecke (2022)
Basis function cutoff            BFCut       ... 1.0000e-11
Integration weight cutoff        WCut        ... 1.0000e-14
Partially contracted basis set               ... on
Rotationally invariant grid construction     ... off
Angular grids for H and He will be reduced by one unit

Total number of grid points                  ...    35252
Total number of batches                      ...      310
Average number of points per batch           ...      113
Average number of grid points per atom       ...      608
UseSFitting                                  ... on

GRIDX 2
-------
General Integration Accuracy     IntAcc      ... 4.020
Radial Grid Type                 RadialGrid  ... OptM3 with GC (2021)
Angular Grid (max. ang.)         AngularGrid ... 2 (Lebedev-110)
Angular grid pruning method      GridPruning ... 4 (adaptive)
Weight generation scheme         WeightScheme... mBecke (2022)
Basis function cutoff            BFCut       ... 1.0000e-11
Integration weight cutoff        WCut        ... 1.0000e-14
Partially contracted basis set               ... on
Rotationally invariant grid construction     ... off
Angular grids for H and He will be reduced by one unit

Total number of grid points                  ...    76523
Total number of batches                      ...      630
Average number of points per batch           ...      121
Average number of grid points per atom       ...     1319
UseSFitting                                  ... on

GRIDX 3
-------
General Integration Accuracy     IntAcc      ... 4.338
Radial Grid Type                 RadialGrid  ... OptM3 with GC (2021)
Angular Grid (max. ang.)         AngularGrid ... 3 (Lebedev-194)
Angular grid pruning method      GridPruning ... 4 (adaptive)
Weight generation scheme         WeightScheme... mBecke (2022)
Basis function cutoff            BFCut       ... 1.0000e-11
Integration weight cutoff        WCut        ... 1.0000e-14
Partially contracted basis set               ... on
Rotationally invariant grid construction     ... off
Angular grids for H and He will be reduced by one unit

Total number of grid points                  ...   167012
Total number of batches                      ...     1333
Average number of points per batch           ...      125
Average number of grid points per atom       ...     2880
UseSFitting                                  ... on
Initializing property integral containers    ... done (  0.0 sec)

SHARK setup successfully completed in   4.6 seconds
[ga00:3716743] 23 more processes have sent help message help-mpi-btl-openib.txt / error in device init
[ga00:3716743] Set MCA parameter "orte_base_help_aggregate" to 0 to see all help / error messages

Maximum memory used throughout the entire STARTUP-calculation: 140.2 MB
--------------------------------------------------------------------------
WARNING: There was an error initializing an OpenFabrics device.

  Local host:   ga00
  Local device: mlx5_0
--------------------------------------------------------------------------


           ************************************************************
           *        Program running with 25 parallel MPI-processes    *
           *              working on a common directory               *
           ************************************************************
-------------------------------------------------------------------------------
                                 ORCA GUESS
                   Start orbitals & Density for SCF / CASSCF
-------------------------------------------------------------------------------

------------
SCF SETTINGS
------------
Hamiltonian:
 Density Functional     Method          .... DFT(GTOs)
 Exchange Functional    Exchange        .... B88
   X-Alpha parameter    XAlpha          ....  0.666667
   Becke's b parameter  XBeta           ....  0.004200
 Correlation Functional Correlation     .... LYP
 LDA part of GGA corr.  LDAOpt          .... VWN-5
 Gradients option       PostSCFGGA      .... off
 Hybrid DFT is turned on
   Fraction HF Exchange ScalHFX         ....  0.200000
   Scaling of DF-GGA-X  ScalDFX         ....  0.720000
   Scaling of DF-GGA-C  ScalDFC         ....  0.810000
   Scaling of DF-LDA-C  ScalLDAC        ....  1.000000
   Perturbative correction              ....  0.000000
   NL short-range parameter             ....  4.800000
 RI-approximation to the Coulomb term is turned on
   Number of AuxJ basis functions       .... 1930
   RIJ-COSX (HFX calculated with COS-X)).... on


General Settings:
 Integral files         IntName         .... honokiol3_FEC2
 Hartree-Fock type      HFTyp           .... RHF
 Total Charge           Charge          ....    0
 Multiplicity           Mult            ....    1
 Number of Electrons    NEL             ....  250
 Basis Dimension        Dim             .... 1198
 Nuclear Repulsion      ENuc            ....   3873.2425087329 Eh

Convergence Acceleration:
 AO-DIIS                CNVDIIS         .... on
   Start iteration      DIISMaxIt       ....    12
   Startup error        DIISStart       ....  0.200000
   # of expansion vecs  DIISMaxEq       ....     5
   Bias factor          DIISBfac        ....   1.050
   Max. coefficient     DIISMaxC        ....  10.000
 MO-DIIS                CNVKDIIS        .... off
 Trust-Rad. Augm. Hess. CNVTRAH         .... auto
   Auto Start mean grad. ratio tolernc. ....  1.125000
   Auto Start start iteration           ....    50
   Auto Start num. interpolation iter.  ....    10
   Max. Number of Micro iterations      ....    24
[...]
   381. D(O  44,H  53,O   0,C   8)    132.82 -0.000075    0.22    133.04   
   382. D(H  32,H  53,O   0,C   8)    109.48 -0.000114   -0.04    109.44   
   383. D(C  52,H  53,O   0,H  32)   -102.13  0.000152   -0.48   -102.61   
   384. D(C  52,H  53,O   0,C   8)      7.35  0.000038   -0.52      6.83   
   385. D(C  56,O  54,C  50,C  52)    -15.03 -0.000025    0.11    -14.92   
   386. D(C  56,O  54,C  50,H  49)    103.30 -0.000131    0.31    103.61   
   387. D(C  56,O  54,C  50,H  48)   -134.88 -0.000116    0.25   -134.63   
   388. D(C  56,O  55,C  52,H  53)   -139.06  0.000095   -0.57   -139.63   
   389. D(C  56,O  55,C  52,F  51)    102.59  0.000100   -0.54    102.05   
   390. D(C  56,O  55,C  52,C  50)    -15.29  0.000032   -0.39    -15.68   
   391. D(H  20,C  56,O  55,C  52)    133.57  0.000044    0.17    133.74   
   392. D(O  57,C  56,O  55,C  52)   -174.56 -0.000074    0.50   -174.06   
   393. D(O  54,C  56,O  55,C  52)      6.48 -0.000046    0.48      6.95   
   394. D(H  20,C  56,O  54,C  50)    -91.50  0.000015    0.25    -91.25   
   395. D(O  57,C  56,O  54,C  50)   -172.73  0.000076   -0.38   -173.11   
   396. D(O  55,C  56,O  54,C  50)      6.21  0.000046   -0.35      5.86   
   397. D(O  57,C  56,H  20,C   5)   -140.59  0.000002    0.07   -140.52   
   398. D(O  55,C  56,H  20,O  57)    133.22  0.000042    0.03    133.25   
   399. D(O  55,C  56,H  20,C   5)     -7.37  0.000044    0.10     -7.27   
   400. D(O  54,C  56,H  20,O  57)   -116.17  0.000005   -0.29   -116.46   
   401. D(O  54,C  56,H  20,C   5)    103.24  0.000007   -0.22    103.02   
   402. D(H  20,O  57,C  56,O  55)    -61.14  0.000065    0.10    -61.04   
   403. D(H  20,O  57,C  56,O  54)    117.67  0.000031    0.13    117.79   
   404. D(C  56,O  57,H  20,C   5)     57.33  0.000042   -0.20     57.13   
    ----------------------------------------------------------------------------

Geometry step timings:
Preparation and reading OPT file:      0.002 s ( 5.939 %)
Internal coordinates            :      0.000 s ( 0.145 %)
B/P matrices and projection     :      0.019 s (45.817 %)
Hessian update/contruction      :      0.003 s ( 8.008 %)
Making the step                 :      0.012 s (29.229 %)
Converting the step to Cartesian:      0.001 s ( 2.525 %)
Storing new data                :      0.000 s ( 0.079 %)
Checking convergence            :      0.000 s ( 0.158 %)
Final printing                  :      0.003 s ( 8.087 %)
Total time                      :      0.041 s
--------------------------------------------------------------------------
WARNING: There was an error initializing an OpenFabrics device.

  Local host:   ga00
  Local device: mlx5_0
--------------------------------------------------------------------------
--------------------------------------------------------------------------
WARNING: There is at least one non-excluded one OpenFabrics device found,
but there are no active ports detected (or Open MPI was unable to use
them).  This is most certainly not what you wanted.  Check your
cables, subnet manager configuration, etc.  The openib BTL will be
ignored for this job.

  Local host: ga00
--------------------------------------------------------------------------
[ga00:3739475] 23 more processes have sent help message help-mpi-btl-openib.txt / error in device init
[ga00:3739475] Set MCA parameter "orte_base_help_aggregate" to 0 to see all help / error messages

Time for energy+gradient        :     87.894 s
Time for complete geometry iter :     88.832 s

         *************************************************************
         *                GEOMETRY OPTIMIZATION CYCLE  11            *
         *************************************************************
---------------------------------
CARTESIAN COORDINATES (ANGSTROEM)
---------------------------------
  O      1.645978    1.692409    2.135357
  O     -3.621937   -1.780477    1.900117
  C      1.499549    0.058390    0.328883
  C      0.149665   -0.421599    0.735731
  C     -2.237817   -0.648765    0.252020
  C     -0.959298   -0.214550   -0.088609
  C      3.391464   -0.074108   -1.220720
  C      2.124983   -0.475424   -0.799844
  C      2.174606    1.057444    1.051129
  C     -0.045542   -1.108588    1.936560
  C     -2.396099   -1.342990    1.460058
  C     -3.422477   -0.329263   -0.637679
  C      4.041914   -0.699688   -2.440816
  C      4.041831    0.905821   -0.472652
  C     -1.304192   -1.575999    2.289447
  C      3.443705    1.467344    0.646493
  C     -4.164737   -1.546560   -1.123845
  C      3.207107   -0.600716   -3.687431
  C     -5.468156   -1.763300   -0.966850
  C      2.816066   -1.630719   -4.428204
  H     -0.831528    0.327702   -1.017726
  H      1.599036   -1.238805   -1.361945
  H      0.797106   -1.301053    2.589503
  H     -4.117842    0.333062   -0.110556
  H     -3.055294    0.235572   -1.498451
  H      4.272623   -1.752266   -2.246545
  H      5.000732   -0.199234   -2.612956
  H      5.031009    1.238345   -0.766823
  H     -1.449114   -2.143731    3.199992
  H      3.947170    2.234776    1.222093
  H     -3.561908   -2.292393   -1.636043
  H      2.910560    0.404559   -3.976674
  H      0.735210    1.412607    2.318562
  H     -4.222191   -1.883596    1.145001
  H     -5.944684   -2.657462   -1.348529
  H     -6.110264   -1.039397   -0.474688
  H      2.218019   -1.493408   -5.320483
  H      3.083640   -2.650238   -4.170816
  H     -4.781146    0.374149    3.306301
  H     -3.300156   -0.767218    4.850878
  O     -2.046863    0.873801    4.878986
  C     -3.357878    0.307923    5.014540
  C     -4.167683    1.017295    3.931872
  C     -1.977671    1.599220    3.749951
  O     -0.997646    2.123864    3.325358
  O     -3.197029    1.647144    3.140061
  F     -4.984333    1.978354    4.485149
  H     -3.743692    0.527224    6.007857
  H      1.377401    5.597332   -0.551175
  H      1.943076    3.925592   -0.213823
  C      1.086727    4.553540   -0.460274
  F     -0.722729    5.542751    0.749547
  C     -0.051700    4.356681    0.534780
  H      0.234118    3.947154    1.499680
  O      0.522539    4.105440   -1.702200
  O     -0.911572    3.465720   -0.124497
  C     -0.604391    3.408278   -1.456793
  O     -1.239552    2.809484   -2.263028

----------------------------
CARTESIAN COORDINATES (A.U.)
----------------------------
  NO LB      ZA    FRAG     MASS         X           Y           Z
   0 O     8.0000    0    15.999    3.110447    3.198190    4.035241
   1 O     8.0000    0    15.999   -6.844469   -3.364614    3.590701
   2 C     6.0000    0    12.011    2.833737    0.110340    0.621498
   3 C     6.0000    0    12.011    0.282826   -0.796707    1.390329
   4 C     6.0000    0    12.011   -4.228861   -1.225988    0.476249
   5 C     6.0000    0    12.011   -1.812810   -0.405441   -0.167447
   6 C     6.0000    0    12.011    6.408939   -0.140044   -2.306827
   7 C     6.0000    0    12.011    4.015637   -0.898420   -1.511487
   8 C     6.0000    0    12.011    4.109411    1.998279    1.986346
   9 C     6.0000    0    12.011   -0.086062   -2.094928    3.659569
  10 C     6.0000    0    12.011   -4.527971   -2.537884    2.759110
  11 C     6.0000    0    12.011   -6.467545   -0.622216   -1.205039
  12 C     6.0000    0    12.011    7.638111   -1.322219   -4.612474
  13 C     6.0000    0    12.011    7.637954    1.711753   -0.893182
  14 C     6.0000    0    12.011   -2.464565   -2.978207    4.326428
  15 C     6.0000    0    12.011    6.507659    2.772878    1.221695
  16 C     6.0000    0    12.011   -7.870213   -2.922574   -2.123760
  17 C     6.0000    0    12.011    6.060554   -1.135189   -6.968235
  18 C     6.0000    0    12.011  -10.333317   -3.332155   -1.827081
  19 C     6.0000    0    12.011    5.321593   -3.081613   -8.368093
  20 H     1.0000    0     1.008   -1.571361    0.619268   -1.923223
  21 H     1.0000    0     1.008    3.021739   -2.341002   -2.573703
  22 H     1.0000    0     1.008    1.506311   -2.458634    4.893452
  23 H     1.0000    0     1.008   -7.781593    0.629396   -0.208920
  24 H     1.0000    0     1.008   -5.773669    0.445167   -2.831663
  25 H     1.0000    0     1.008    8.074087   -3.311302   -4.245354
  26 H     1.0000    0     1.008    9.450015   -0.376499   -4.937770
  27 H     1.0000    0     1.008    9.507229    2.340133   -1.449085
  28 H     1.0000    0     1.008   -2.738428   -4.051064    6.047108
  29 H     1.0000    0     1.008    7.459070    4.223114    2.309422
  30 H     1.0000    0     1.008   -6.731030   -4.331995   -3.091673
  31 H     1.0000    0     1.008    5.500161    0.764505   -7.514824
  32 H     1.0000    0     1.008    1.389346    2.669441    4.381448
  33 H     1.0000    0     1.008   -7.978784   -3.559481    2.163739
  34 H     1.0000    0     1.008  -11.233825   -5.021876   -2.548351
  35 H     1.0000    0     1.008  -11.546726   -1.964177   -0.897031
  36 H     1.0000    0     1.008    4.191448   -2.822132  -10.054255
  37 H     1.0000    0     1.008    5.827234   -5.008225   -7.881701
  38 H     1.0000    0     1.008   -9.035057    0.707039    6.248003
  39 H     1.0000    0     1.008   -6.236391   -1.449831    9.166830
  40 O     8.0000    0    15.999   -3.868010    1.651245    9.219947
  41 C     6.0000    0    12.011   -6.345469    0.581891    9.476107
  42 C     6.0000    0    12.011   -7.875779    1.922409    7.430161
  43 C     6.0000    0    12.011   -3.737257    3.022088    7.086381
  44 O     8.0000    0    15.999   -1.885277    4.013522    6.284017
  45 O     8.0000    0    15.999   -6.041509    3.112651    5.933855
  46 F     9.0000    0    18.998   -9.419025    3.738547    8.475704
  47 H     1.0000    0     1.008   -7.074553    0.996309   11.353204
  48 H     1.0000    0     1.008    2.602912   10.577424   -1.041570
  49 H     1.0000    0     1.008    3.671882    7.418294   -0.404067
  50 C     6.0000    0    12.011    2.053617    8.604943   -0.869791
  51 F     9.0000    0    18.998   -1.365759   10.474282    1.416438
  52 C     6.0000    0    12.011   -0.097699    8.232934    1.010588
  53 H     1.0000    0     1.008    0.442420    7.459039    2.833984
  54 O     8.0000    0    15.999    0.987456    7.758157   -3.216691
  55 O     8.0000    0    15.999   -1.722621    6.549262   -0.235264
  56 C     6.0000    0    12.011   -1.142134    6.440712   -2.752940
  57 O     8.0000    0    15.999   -2.342415    5.309156   -4.276503

--------------------------------
INTERNAL COORDINATES (ANGSTROEM)
--------------------------------
 O      0   0   0     0.000000000000     0.00000000     0.00000000
 O      1   0   0     6.314047848344     0.00000000     0.00000000
 C      1   2   0     2.440248347615    63.51601256     0.00000000
 C      3   1   2     1.489329046701    93.89718596     0.28926486
 C      2   1   3     2.431621749989    45.11832124   317.90771347
 C      5   2   1     1.392545187490   146.46208580    29.64804014
 C      3   1   2     2.449115869475   117.27514415   179.70912799
 C      7   3   1     1.393615765066    28.65517597   182.12755252
 C      1   2   3     1.363151308345    92.16102313   358.92515269
 C      4   3   1     1.397158518009   121.32509989   293.06981443
 C      2   1   3     1.373945116997    24.82641751   356.44664457
 C      5   2   1     1.515607570315    92.92690876   212.90915500
 C      7   3   1     1.517586732763   149.55143513   180.33955946
 C      7   3   1     1.393859836452    89.01626108     1.91028425
 C     10   4   3     1.388236728109   120.71095229   181.42292835
 C     14   7   3     1.387641111824   121.07858709   359.45867936
 C     12   5   2     1.506359627178   113.84456012   300.12715828
 C     13   7   3     1.503578438974   113.66998922    56.82533090
 C     17  12   5     1.330610551789   125.18596708   125.03348306
 C     18  13   7     1.327615830219   125.10526563   236.70753052
 H      6   5   2     1.083338008540   118.30367999   181.88853691
 H      8   7   3     1.084125976483   119.14786399   180.47362600
 H     10   4   3     1.083250819051   119.78458557   359.91310506
 H     12   5   2     1.095474666036   109.94654467    63.18609320
 H     12   5   2     1.093064892728   107.97714658   178.69253091
 H     13   7   3     1.094936942868   110.11688979   294.05861031
 H     13   7   3     1.095179434865   108.25465897   178.09265603
 H     14   7   3     1.084241875259   119.71486877   179.50869513
 H     15  10   4     1.082780370834   120.77379805   177.46869144
 H     16  14   7     1.083395000500   120.98602271   180.51106971
 H     17  12   5     1.087206266125   115.67065673   305.31845044
 H     18  13   7     1.087280567091   115.64855782    56.31384229
 H      1   2   3     0.970232432162    20.80948728   165.04280506
 H      2   1   3     0.970122685454   127.13460198   305.59277241
 H     19  17  12     1.082720405380   121.60462415   179.44391253
 H     19  17  12     1.085615785806   121.61816561     1.20107498
 H     20  18  13     1.082901690899   121.60387160   180.30396006
 H     20  18  13     1.085017620339   121.60070810     0.05961736
 H      2   1   3     2.821973111098    84.50272168   204.18030941
 H     39   2   1     2.425235782445    72.97321036   288.52586208
 O     40  39   2     2.065060877167    90.30346869   112.49097802
 C     40  39   2     1.089056934718    66.34278413   146.80829114
 C     39   2   1     1.086882341697   120.44745233   333.69621831
 C     41  40  39     1.343777838729   116.66662938   328.27441716
 O     44  41  40     1.189949858320   125.46548132   216.51714288
 O     44  41  40     1.364219615205   110.39925648    36.06552992
 F     43  39   2     1.377196086931   108.02728752   179.66909249
 H     42  40  39     1.087944970782   110.79352716   118.79879365
 H     30  16  14     4.588569516474    93.06783735   103.42165752
 H     49  30  16     1.796804479319    21.45988939     6.19296707
 C     49  30  16     1.087315782923    54.12138400    25.79899779
 F     51  49  30     2.390885984753    81.22486112   123.50869542
 C     52  51  49     1.379553236649    36.61971219   198.25699727
 H     53  52  51     1.086478719790   108.28643749   127.67721890
 O     51  49  30     1.435786143906   109.41055388   227.08017933
 O     53  52  51     1.402795669620   108.72733418   246.97042274
 C     55  51  49     1.347676173943   109.42193692   225.37296223
 O     57  55  51     1.188275260888   125.73941463   186.89041435

---------------------------
INTERNAL COORDINATES (A.U.)
---------------------------
 O      0   0   0     0.000000000000     0.00000000     0.00000000
 O      1   0   0    11.931821229845     0.00000000     0.00000000
 C      1   2   0     4.611401075746    63.51601256     0.00000000
 C      3   1   2     2.814424021560    93.89718596     0.28926486
 C      2   1   3     4.595099168765    45.11832124   317.90771347
 C      5   2   1     2.631529033467   146.46208580    29.64804014
 C      3   1   2     4.628158263549   117.27514415   179.70912799
 C      7   3   1     2.633552131891    28.65517597   182.12755252
 C      1   2   3     2.575982651868    92.16102313   358.92515269
 C      4   3   1     2.640246964712   121.32509989   293.06981443
 C      2   1   3     2.596379994163    24.82641751   356.44664457
 C      5   2   1     2.864083234393    92.92690876   212.90915500
 C      7   3   1     2.867823309394   149.55143513   180.33955946
 C      7   3   1     2.634013359966    89.01626108     1.91028425
 C     10   4   3     2.623387225177   120.71095229   181.42292835
 C     14   7   3     2.622261673518   121.07858709   359.45867936
 C     12   5   2     2.846607154562   113.84456012   300.12715828
 C     13   7   3     2.841351470530   113.66998922    56.82533090
 C     17  12   5     2.514489533787   125.18596708   125.03348306
 C     18  13   7     2.508830330173   125.10526563   236.70753052
 H      6   5   2     2.047212146607   118.30367999   181.88853691
 H      8   7   3     2.048701190223   119.14786399   180.47362600
 H     10   4   3     2.047047382352   119.78458557   359.91310506
 H     12   5   2     2.070147105457   109.94654467    63.18609320
 H     12   5   2     2.065593293860   107.97714658   178.69253091
 H     13   7   3     2.069130955933   110.11688979   294.05861031
 H     13   7   3     2.069589199398   108.25465897   178.09265603
 H     14   7   3     2.048920207170   119.71486877   179.50869513
 H     15  10   4     2.046158364063   120.77379805   177.46869144
 H     16  14   7     2.047319845805   120.98602271   180.51106971
 H     17  12   5     2.054522094060   115.67065673   305.31845044
 H     18  13   7     2.054662502537   115.64855782    56.31384229
 H      1   2   3     1.833473583034    20.80948728   165.04280506
 H      2   1   3     1.833266191813   127.13460198   305.59277241
 H     19  17  12     2.046045045776   121.60462415   179.44391253
 H     19  17  12     2.051516521835   121.61816561     1.20107498
 H     20  18  13     2.046387625760   121.60387160   180.30396006
 H     20  18  13     2.050386152919   121.60070810     0.05961736
 H      2   1   3     5.332756337264    84.50272168   204.18030941
 H     39   2   1     4.583031439007    72.97321036   288.52586208
 O     40  39   2     3.902399507720    90.30346869   112.49097802
 C     40  39   2     2.058019350865    66.34278413   146.80829114
 C     39   2   1     2.053909965602   120.44745233   333.69621831
 C     41  40  39     2.539372100031   116.66662938   328.27441716
 O     44  41  40     2.248679345323   125.46548132   216.51714288
 O     44  41  40     2.578001459261   110.39925648    36.06552992
 F     43  39   2     2.602523437007   108.02728752   179.66909249
 H     42  40  39     2.055918043555   110.79352716   118.79879365
 H     30  16  14     8.671139732596    93.06783735   103.42165752
 H     49  30  16     3.395468382116    21.45988939     6.19296707
 C     49  30  16     2.054729050815    54.12138400    25.79899779
 F     51  49  30     4.518119728614    81.22486112   123.50869542
 C     52  51  49     2.606977804431    36.61971219   198.25699727
 H     53  52  51     2.053147230736   108.28643749   127.67721890
 O     51  49  30     2.713242598861   109.41055388   227.08017933
 O     53  52  51     2.650899637432   108.72733418   246.97042274
 C     55  51  49     2.546738885963   109.42193692   225.37296223
 O     57  55  51     2.245514814792   125.73941463   186.89041435

--------------------------------------------------------------------------
WARNING: There was an error initializing an OpenFabrics device.

  Local host:   ga00
  Local device: mlx5_0
--------------------------------------------------------------------------
[ga00:3739593] *** Process received signal ***
[ga00:3739593] Signal: Segmentation fault (11)
[ga00:3739593] Signal code: Address not mapped (1)
[ga00:3739593] Failing at address: (nil)
[ga00:3739593] [ 0] /usr/lib64/libpthread.so.0(+0x12cf0)[0x14b5b0a2dcf0]
[ga00:3739593] [ 1] /usr/lib64/libc.so.6(+0xc84d2)[0x14b5b071d4d2]
[ga00:3739593] [ 2] /home/yongsang/.openmpi/lib/libopen-rte.so.40(+0x2b27d)[0x14b5b1b1827d]
[ga00:3739593] [ 3] /home/yongsang/.openmpi/lib/libopen-rte.so.40(orte_show_help_recv+0x147)[0x14b5b1b186f7]
[ga00:3739593] [ 4] /home/yongsang/.openmpi/lib/libopen-rte.so.40(orte_rml_base_process_msg+0x39b)[0x14b5b1b7421b]
[ga00:3739593] [ 5] /home/yongsang/.openmpi/lib/libopen-pal.so.40(opal_libevent2022_event_base_loop+0x769)[0x14b5b18625b9]
[ga00:3739593] [ 6] mpirun[0x400f39]
[ga00:3739593] [ 7] /usr/lib64/libc.so.6(__libc_start_main+0xe5)[0x14b5b068fd85]
[ga00:3739593] [ 8] mpirun[0x400cde]
[ga00:3739593] *** End of error message ***

ORCA finished by error termination in Startup
Calling Command: mpirun -np 25  /home/yongsang/orca_6_0_1_linux_x86-64_shared_openmpi416/orca_startup_mpi honokiol3_FEC2.int.tmp honokiol3_FEC2 
[file orca_tools/qcmsg.cpp, line 394]: 
  .... aborting the run

[file orca_tools/qcmsg.cpp, line 394]: 
  .... aborting the run

