
                                 *****************
                                 * O   R   C   A *
                                 *****************

                                            #,                                       
                                            ###                                      
                                            ####                                     
                                            #####                                    
                                            ######                                   
                                           ########,                                 
                                     ,,################,,,,,                         
                               ,,#################################,,                 
                          ,,##########################################,,             
                       ,#########################################, ''#####,          
                    ,#############################################,,   '####,        
                  ,##################################################,,,,####,       
                ,###########''''           ''''###############################       
              ,#####''   ,,,,##########,,,,          '''####'''          '####       
            ,##' ,,,,###########################,,,                        '##       
           ' ,,###''''                  '''############,,,                           
         ,,##''                                '''############,,,,        ,,,,,,###''
      ,#''                                            '''#######################'''  
     '                                                          ''''####''''         
             ,#######,   #######,   ,#######,      ##                                
            ,#'     '#,  ##    ##  ,#'     '#,    #''#        ,####,   ,####,        
            ##       ##  ##   ,#'  ##            #'  '#       #'       #'  '#        
            ##       ##  #######   ##           ,######,      #####,   #    #        
            '#,     ,#'  ##    ##  '#,     ,#' ,#      #,     #,   #   #,  ,#        
             '#######'   ##     ##  '#######'  #'      '#     '####' # '####'        



                #########################################################
                #                        -***-                          #
                #          Department of theory and spectroscopy        #
                #                                                       #
                #                      Frank Neese                      #
                #                                                       #
                #     Directorship, Architecture, Infrastructure        #
                #                    SHARK, DRIVERS                     #
                #        Core code/Algorithms in most modules           #
                #                                                       #
                #        Max Planck Institute fuer Kohlenforschung      #
                #                Kaiser Wilhelm Platz 1                 #
                #                 D-45470 Muelheim/Ruhr                 #
                #                      Germany                          #
                #                                                       #
                #                  All rights reserved                  #
                #                        -***-                          #
                #########################################################


                         Program Version 6.0.1  -  RELEASE   -


 With contributions from (in alphabetic order):
[Max-Planck-Institut fuer Kohlenforschung]                               
  Daniel Aravena         : Magnetic Suceptibility                        
  Michael Atanasov       : Ab Initio Ligand Field Theory (pilot matlab implementation)
  Alexander A. Auer      : GIAO ZORA, VPT2 properties, NMR spectrum      
  Ute Becker             : All parallelization in ORCA, NUMFREQ, NUMCALC 
  Giovanni Bistoni       : ED, misc. LED, open-shell LED, HFLD           
  Martin Brehm           : Molecular dynamics                            
  Dmytro Bykov           : pre 5.0 version of the SCF Hessian            
  Marcos Casanova-Páez   : Triplet and SCS-CIS(D). UHF-(DLPNO)-IP/EA/STEOM-CCSD. UHF-CVS-IP/STEOM-CCSD   
  Vijay G. Chilkuri      : MRCI spin determinant printing, contributions to CSF-ICE 
  Pauline Colinet        : FMM embedding                                 
  Dipayan Datta          : RHF DLPNO-CCSD density                        
  Achintya Kumar Dutta   : EOM-CC, STEOM-CC                              
  Nicolas Foglia         : Exact transition moments, OPA infrastructure, MCD improvements    
  Dmitry Ganyushin       : Spin-Orbit,Spin-Spin,Magnetic field MRCI      
  Miquel Garcia-Rates    : C-PCM and meta-GGA Hessian, CCSD/C-PCM, Gaussian charge scheme 
  Tiago L. C. Gouveia    : GS-ROHF, GS-ROCIS                             
  Yang Guo               : DLPNO-NEVPT2, F12-NEVPT2, CIM, IAO-localization        
  Andreas Hansen         : Spin unrestricted coupled pair/coupled cluster methods 
  Ingolf Harden          : AUTO-CI MPn and infrastructure                
  Benjamin Helmich-Paris : MC-RPA, TRAH-(SCF,CASSCF), AVAS, COSX integrals, SCF dyn. polar. 
  Lee Huntington         : MR-EOM, pCC                                   
  Robert Izsak           : Overlap fitted RIJCOSX, COSX-SCS-MP3, EOM     
  Riya Kayal             : Wick's Theorem for AUTO-CI, AUTO-CI UHF-CCSDT 
  Emily Kempfer          : AUTO-CI, RHF CISDT and CCSDT                  
  Christian Kollmar      : KDIIS, OOCD, Brueckner-CCSD(T), CCSD density, CASPT2, CASPT2-K, improved NEVPT2 
  Axel Koslowski         : Symmetry handling                             
  Simone Kossmann        : meta-GGA functionals, TD-DFT gradient, OOMP2, (MP2 Hessian; deprecated post 5.0) 
  Lucas Lang             : DCDCAS                                        
  Marvin Lechner         : AUTO-CI (C++ implementation), FIC-MRCC        
  Spencer Leger          : CASSCF response                               
  Dagmar Lenk            : GEPOL surface, SMD, ORCA-2-JSON               
  Dimitrios Liakos       : Extrapolation schemes; Compound Job, initial MDCI parallelization 
  Dimitrios Manganas     : Further ROCIS development; embedding schemes. LFT, Crystal Embedding 
  Dimitrios Pantazis     : SARC Basis sets                               
  Anastasios Papadopoulos: AUTO-CI, single reference methods and gradients 
  Taras Petrenko         : pre 6.0 DFT Hessian and TD-DFT gradient, (ASA, deprecated), ECA, 1-Electron XAS/XES, NRVS 
  Peter Pinski           : DLPNO-MP2, DLPNO-MP2 Gradient                 
  Christoph Reimann      : Effective Core Potentials                     
  Marius Retegan         : Local ZFS, SOC                                
  Christoph Riplinger    : Optimizer, TS searches, QM/MM, DLPNO-CCSD(T), (RO)-DLPNO pert. Triples 
  Michael Roemelt        : Original ROCIS implementation                 
  Masaaki Saitow         : Open-shell DLPNO-CCSD energy and density      
  Barbara Sandhoefer     : DKH picture change effects                    
  Kantharuban Sivalingam : CASSCF convergence/infrastructure, NEVPT2 and variants, FIC-MRCI 
  Bernardo de Souza      : ESD, SOC TD-DFT                               
  Georgi L. Stoychev     : AutoAux, RI-MP2 NMR, DLPNO-MP2 response, X2C  
  Van Anh Tran           : RI-MP2 g-tensors                              
  Willem Van den Heuvel  : Paramagnetic NMR                              
  Zikuan Wang            : NOTCH, Electric field optimization            
  Frank Wennmohs         : Technical directorship and infrastructure     
  Hang Xu                : AUTO-CI-Response properties                   
                                                                         
[FACCTs GmbH]                                                            
  Markus Bursch, Miquel Garcia-Rates, Christoph Riplinger, Bernardo de Souza, Georgi L. Stoychev 
                                                                 
  APM, Basis sets (HGBS, AHGBS, def-TZVP (Ac-Lr), def2-XVPD (La-Lu)), CI-OPT, improved COSX, DLPNO-Multilevel,           
  DOCKER, DRACO, updates on ESD, GOAT, IRC, LR-CPCM, MBIS, meta-GGA TD-DFT gradient, ML-optimized integration grids, 
  MM, NACMEs, nearIR, NEB, NEB-TS, NL-DFT gradient (VV10), 2- and 3-layer-ONIOM, interface openCOSMO-RS, QMMM,   
  Crystal-QMMM, SF, symmetry and pop. for TD-DFT, r2SCAN hybrids, SOLVATOR                                   
                                                                         
[Other institutions]                                                     
  V. Asgeirsson          : NEB                                           
  Christoph Bannwarth    : sTDA-DFT, sTD-DFT, PBEh-3c, B97-3c, D3        
  Sebastian Ehlert       : rSCAN, r2SCAN, r2SCAN-3c, D4, dhf basis sets  
  Marvin Friede          : D4 for Fr, Ra, Ac-Lr                          
  Lars Goerigk           : TD-DFT with DH, B97 family of functionals     
  Stefan Grimme          : VdW corrections, initial TS optimization, DFT functionals, gCP, sTDA/sTD-DF 
  Waldemar Hujo          : DFT-NL                                        
  H. Jonsson             : NEB                                           
  Holger Kruse           : gCP                                           
  Marcel Mueller         : wB97X-3c, vDZP basis set                      
  Hagen Neugebauer       : wr2SCAN                                       
  Tobias Risthaus        : range-separated hybrid DFT                    
  Lukas Wittmann         : regularized MP2, r2SCAN double-hybrids, wr2SCAN        
                                                                         
We gratefully acknowledge several colleagues who have allowed us to      
interface, adapt or use parts of their codes:                            
  Ed Valeev, F. Pavosevic, A. Kumar             : LibInt (2-el integral package), F12 methods 
  Garnet Chan, S. Sharma, J. Yang, R. Olivares  : DMRG                   
  Ulf Ekstrom                                   : XCFun DFT Library      
  Mihaly Kallay                                 : mrcc  (arbitrary order and MRCC methods)
  Frank Weinhold                                : gennbo (NPA and NBO analysis)           
  Simon Mueller                                 : openCOSMO-RS                            
  Christopher J. Cramer and Donald G. Truhlar   : smd solvation model                     
  S Lehtola, MJT Oliveira, MAL Marques          : LibXC Library                           
  Liviu Ungur et al                             : ANISO software                          


 Your calculation uses the libint2 library for the computation of 2-el integrals
 For citations please refer to: http://libint.valeyev.net

 Your ORCA version has been built with support for libXC version: 6.2.2
 For citations please refer to: https://libxc.gitlab.io

 This ORCA versions uses:
   CBLAS   interface :  Fast vector & matrix operations
   LAPACKE interface :  Fast linear algebra routines
   SCALAPACK package :  Parallel linear algebra routines
   Shared memory     :  Shared parallel matrices
   BLAS/LAPACK       :  OpenBLAS 0.3.27  USE64BITINT DYNAMIC_ARCH NO_AFFINITY SkylakeX SINGLE_THREADED
        Core in use  :  SkylakeX
   Copyright (c) 2011-2014, The OpenBLAS Project


NOTE: MaxCore=5000 MB was set to SCF,MP2,MDCI,CIPSI,MRCI and CIS
      => If you want to overwrite this, your respective input block should be placed after the MaxCore statement
Warning: RI is on but no J-basis has been assigned. Assigning Def2/J (nothing to worry about!)
================================================================================

----- Orbital basis set information -----
Your calculation utilizes the basis: def2-TZVP
   F. Weigend and R. Ahlrichs, Phys. Chem. Chem. Phys. 7, 3297 (2005).

----- AuxJ basis set information -----
Your calculation utilizes the auxiliary basis: def2/J
   F. Weigend, Phys. Chem. Chem. Phys. 8, 1057 (2006).

================================================================================
                                        WARNINGS
                       Please study these warnings very carefully!
================================================================================


WARNING: Geometry Optimization
  ===> : Switching off AutoStart
         For restart on a previous wavefunction, please use MOREAD

================================================================================
                                       INPUT FILE
================================================================================
NAME = honokiol2-opt_FEC2.inp
|  1> ! OPT B3LYP def2-TZVP TightSCF
|  2> 
|  3> %maxcore 5000
|  4> 
|  5> %pal
|  6> nprocs 25
|  7> end
|  8> 
|  9> * xyz 0 1
| 10> O           1.63866272126036      1.88940651648488      2.17483799590727
| 11>   O          -3.65179222198007     -1.52638930999054      2.01317165214237
| 12>   C           1.49312449771298      0.20795497520611      0.40632841034614
| 13>   C           0.13919323227994     -0.26065646714239      0.81375115813148
| 14>   C          -2.25837954444339     -0.42042881363106      0.35512839902783
| 15>   C          -0.97229888747917     -0.01563822116558      0.00422849310323
| 16>   C           3.39943461003534      0.02420933978451     -1.12111616008347
| 17>   C           2.12613949027986     -0.35780556339389     -0.70223060345366
| 18>   C           2.16618852077905      1.22091906241269      1.11173741567273
| 19>   C          -0.05695615015306     -0.96613177196702      2.00268697747154
| 20>   C          -2.41818449616113     -1.12746304002334      1.55539092457434
| 21>   C          -3.44540813006949     -0.05694437560876     -0.51447118829737
| 22>   C           4.05745721247532     -0.63862791707443     -2.31705586723686
| 23>   C           4.04830302929601      1.01841271334306     -0.39083091640550
| 24>   C          -1.32164258999984     -1.40806813740352      2.36327940325745
| 25>   C           3.44283990730860      1.61084456183477      0.70800895612596
| 26>   C          -4.22841587129664     -1.24661998587428     -1.00411898096450
| 27>   C           3.26204079787771     -0.51637234945490     -3.58732394713215
| 28>   C          -5.53512912654572     -1.42935476118174     -0.83169911805205
| 29>   C           2.84423347345318     -1.53531438475522     -4.32872114283899
| 30>   H          -0.84189166555931      0.54430153231898     -0.91378959866228
| 31>   H           1.60117661310764     -1.13339589462390     -1.24848333325989
| 32>   H           0.78753113634893     -1.18446522119788      2.64481174153732
| 33>   H          -4.11470479720777      0.61881705379647      0.02945785257279
| 34>   H          -3.07401784882649      0.50707154630165     -1.37399285583944
| 35>   H           4.23806912758679     -1.69803313371691     -2.10842881313427
| 36>   H           5.04072384861399     -0.17984545127198     -2.46609751113964
| 37>   H           5.04434612661547      1.33483689752942     -0.68023956635055
| 38>   H          -1.47142209317222     -1.97436335979353      3.27359462047801
| 39>   H           3.94760720094377      2.38566172705486      1.27182304483301
| 40>   H          -3.65400873669142     -2.00260883389989     -1.53386805765953
| 41>   H           3.02000652830780      0.49811847597604     -3.89506114373166
| 42>   H           0.72127776363338      1.63907885667367      2.37036394327521
| 43>   H          -4.26663679998798     -1.60817529645399      1.26757394639499
| 44>   H          -6.04183338983009     -2.30474940984206     -1.21805352801897
| 45>   H          -6.14984313663709     -0.69446542746769     -0.32116727046366
| 46>   H           2.27647313366784     -1.38101650729184     -5.23783879778884
| 47>   H           3.05789413484450     -2.56299196295896     -4.05412744631559
| 48>   H          -5.02663741557926      0.99177721518561      3.55460617808196
| 49>   H          -3.60281358439198     -0.62149381021209      4.67201557475620
| 50>   O          -2.10954406981958      0.79236647259432      4.87899711903846
| 51>   C          -3.47926698675927      0.39681013611808      5.03961540313488
| 52>   C          -4.23783919073551      1.40250639597532      4.18035695305937
| 53>   C          -2.00390717746765      1.65115811400559      3.85014267095337
| 54>   O          -0.98838724867239      2.08212814028688      3.40756181099957
| 55>   O          -3.24396313494557      1.96413269405456      3.36612743518364
| 56>   F          -4.79220160159416      2.39399396360672      4.95821632247863
| 57>   H          -3.75245070467755      0.47217043562123      6.08959844071451
| 58>   H           0.99386113596673      5.99812879484987     -1.05288249367252
| 59>   H           1.92413234238141      4.46926294928065     -1.13706755195399
| 60>   C           0.93293616176288      4.91219016287777     -1.03813240486378
| 61>   F          -0.52164541230473      5.41481707104936      0.78832653841238
| 62>   C           0.19677379237535      4.40045256411054      0.19809298055132
| 63>   H           0.81733621095603      3.92992867000178      0.95729581572801
| 64>   O           0.11132374740742      4.46871311620474     -2.12793054565525
| 65>   O          -0.69888228152412      3.45213608413713     -0.32094731520851
| 66>   C          -0.78998783151311      3.57104712452120     -1.68045862673892
| 67>   O          -1.54543261865245      2.95113579309882     -2.35534092182226
| 68> *
| 69> 
| 70>                          ****END OF INPUT****
================================================================================

                       *****************************
                       * Geometry Optimization Run *
                       *****************************

Geometry optimization settings:
Update method            Update   .... BFGS
Choice of coordinates    CoordSys .... (2022) Redundant Internals
Initial Hessian          InHess   .... Almloef's Model
Max. no of cycles        MaxIter  .... 174

Convergence Tolerances:
Energy Change            TolE     ....  5.0000e-06 Eh
Max. Gradient            TolMAXG  ....  3.0000e-04 Eh/bohr
RMS Gradient             TolRMSG  ....  1.0000e-04 Eh/bohr
Max. Displacement        TolMAXD  ....  4.0000e-03 bohr
RMS Displacement         TolRMSD  ....  2.0000e-03 bohr
Strict Convergence                .... False

------------------------------------------------------------------------------
                        ORCA OPTIMIZATION COORDINATE SETUP
------------------------------------------------------------------------------

The optimization will be done in redundant internal coordinates (2022)
Making redundant internal coordinates   ...  (2022 redundants) done
Evaluating the initial hessian          ...  (Almloef) done
Evaluating the coordinates              ...  done
Calculating the B-matrix                .... done
Calculating the G-matrix                .... done
Diagonalizing the G-matrix              .... done
Small eigenvalue found = 3.097e-03
Small eigenvalue found = 4.323e-03
Small eigenvalue found = 9.238e-03
Small eigenvalue found = 1.087e-02
Small eigenvalue found = 1.823e-02
Small eigenvalue found = 2.114e-02
Small eigenvalue found = 2.226e-02
Small eigenvalue found = 2.731e-02
The first mode is                       ....  219
The number of degrees of freedom        ....  168

    -----------------------------------------------------------------
                    Redundant Internal Coordinates


    -----------------------------------------------------------------
         Definition                    Initial Value    Approx d2E/dq
    -----------------------------------------------------------------
      1. B(C   3,C   2)                  1.4895         0.433445   
      2. B(C   5,C   4)                  1.3932         0.617508   
      3. B(C   5,C   3)                  1.3967         0.609602   
      4. B(C   7,C   2)                  1.3963         0.610468   
      5. B(C   7,C   6)                  1.3938         0.616133   
      6. B(C   8,C   2)                  1.4060         0.589225   
      7. B(C   8,O   0)                  1.3621         0.619974   
      8. B(C   9,C   3)                  1.3963         0.610434   
      9. B(C  10,C   4)                  1.4022         0.597490   
     10. B(C  10,O   1)                  1.3750         0.591403   
     11. B(C  11,C   4)                  1.5157         0.393717   
     12. B(C  12,C   6)                  1.5174         0.391218   
     13. B(C  13,C   6)                  1.3938         0.616047   
     14. B(C  14,C  10)                  1.3906         0.623372   
     15. B(C  14,C   9)                  1.3874         0.630887   
     16. B(C  15,C   8)                  1.3946         0.614353   
     17. B(C  15,C  13)                  1.3874         0.630683   
     18. B(C  16,C  11)                  1.5060         0.407934   
     19. B(C  17,C  12)                  1.5037         0.411419   
     20. B(C  18,C  16)                  1.3306         0.777022   
     21. B(C  19,C  17)                  1.3276         0.785817   
     22. B(H  20,C   5)                  1.0832         0.369225   
     23. B(H  21,C   7)                  1.0842         0.367837   
     24. B(H  22,C   9)                  1.0831         0.369315   
     25. B(H  23,C  11)                  1.0957         0.352690   
     26. B(H  24,C  11)                  1.0931         0.356050   
     27. B(H  25,C  12)                  1.0948         0.353866   
     28. B(H  26,C  12)                  1.0952         0.353260   
     29. B(H  27,C  13)                  1.0844         0.367547   
     30. B(H  28,C  14)                  1.0825         0.370165   
     31. B(H  29,C  15)                  1.0831         0.369399   
     32. B(H  30,C  16)                  1.0872         0.363766   
     33. B(H  31,C  17)                  1.0874         0.363534   
     34. B(H  32,O   0)                  0.9708         0.499696   
     35. B(H  33,O   1)                  0.9699         0.501450   
     36. B(H  34,C  18)                  1.0827         0.369828   
     37. B(H  35,C  18)                  1.0856         0.365936   
     38. B(H  36,C  19)                  1.0829         0.369627   
     39. B(H  37,C  19)                  1.0850         0.366807   
     40. B(H  39,O   1)                  2.8090         0.000583   
     41. B(C  41,O  40)                  1.4347         0.474829   
     42. B(C  41,H  39)                  1.0896         0.360564   
     43. B(C  42,C  41)                  1.5249         0.380703   
     44. B(C  42,H  38)                  1.0874         0.363540   
     45. B(C  43,O  40)                  1.3443         0.661818   
     46. B(O  44,H  32)                  2.0482         0.009547   
     47. B(O  44,C  43)                  1.1887         1.172501   
     48. B(O  45,C  43)                  1.3675         0.607893   
     49. B(O  45,C  42)                  1.4022         0.535058   
     50. B(F  46,C  42)                  1.3767         0.545899   
     51. B(H  47,C  41)                  1.0876         0.363351   
     52. B(C  50,H  49)                  1.0902         0.359892   
     53. B(C  50,H  48)                  1.0877         0.363094   
     54. B(C  52,F  51)                  1.3760         0.547353   
     55. B(C  52,C  50)                  1.5271         0.377563   
     56. B(H  53,H  32)                  2.6933         0.000191   
     57. B(H  53,O   0)                  2.5141         0.001724   
     58. B(H  53,C  52)                  1.0876         0.363285   
     59. B(H  53,F  51)                  2.0066         0.010335   
     60. B(H  53,C   8)                  3.0302         0.000289   
     61. B(O  54,C  50)                  1.4351         0.474237   
     62. B(O  55,C  52)                  1.4039         0.531759   
     63. B(O  55,H  53)                  2.0399         0.009842   
     64. B(O  55,H  20)                  2.9711         0.000322   
     65. B(C  56,O  55)                  1.3677         0.607283   
     66. B(C  56,O  54)                  1.3485         0.651806   
     67. B(C  56,H  20)                  3.1228         0.000206   
     68. B(O  57,H  20)                  2.8924         0.000430   
     69. B(O  57,C  56)                  1.1876         1.176934   
     70. B(O  57,H  24)                  3.0452         0.000245   
     71. A(H  32,O   0,H  53)           89.8917         0.152378   
     72. A(C   8,O   0,H  32)          113.3667         0.367596   
     73. A(C   8,O   0,H  53)           98.4458         0.166212   
     74. A(C  10,O   1,H  33)          109.7119         0.364855   
     75. A(C   7,C   2,C   8)          118.2441         0.428919   
     76. A(C   3,C   2,C   7)          120.1164         0.406098   
     77. A(C   3,C   2,C   8)          121.6394         0.403566   
     78. A(C   5,C   3,C   9)          118.0571         0.431540   
     79. A(C   2,C   3,C   9)          121.3008         0.406094   
     80. A(C   2,C   3,C   5)          120.6390         0.405996   
     81. A(C   5,C   4,C  11)          120.5814         0.400079   
     82. A(C   5,C   4,C  10)          117.8602         0.430878   
     83. A(C  10,C   4,C  11)          121.5190         0.397768   
     84. A(C   3,C   5,H  20)          119.0841         0.353394   
     85. A(C   3,C   5,C   4)          122.5247         0.432434   
     86. A(C   4,C   5,H  20)          118.3458         0.354166   
     87. A(C  12,C   6,C  13)          121.5090         0.399465   
     88. A(C   7,C   6,C  12)          120.8830         0.399474   
     89. A(C   7,C   6,C  13)          117.6012         0.433079   
     90. A(C   2,C   7,C   6)          122.7993         0.432371   
     91. A(C   2,C   7,H  21)          118.0561         0.353254   
     92. A(C   6,C   7,H  21)          119.1418         0.353807   
     93. A(O   0,C   8,H  53)           55.1540         0.141149   
     94. A(O   0,C   8,C  15)          116.3121         0.430515   
     95. A(C   2,C   8,H  53)          113.9191         0.140980   
     96. A(C  15,C   8,H  53)           98.2085         0.141474   
     97. A(C   2,C   8,C  15)          119.6325         0.429407   
     98. A(O   0,C   8,C   2)          124.0406         0.427302   
     99. A(C   3,C   9,C  14)          120.6840         0.434211   
    100. A(C  14,C   9,H  22)          119.5010         0.355470   
    101. A(C   3,C   9,H  22)          119.8090         0.353490   
    102. A(O   1,C  10,C   4)          122.2461         0.424766   
    103. A(C   4,C  10,C  14)          120.6093         0.431610   
    104. A(O   1,C  10,C  14)          117.0969         0.428004   
    105. A(C   4,C  11,C  16)          113.8449         0.372216   
    106. A(H  23,C  11,H  24)          106.2407         0.289378   
    107. A(C  16,C  11,H  24)          109.1832         0.328438   
    108. A(C   4,C  11,H  24)          107.9864         0.326524   
    109. A(C  16,C  11,H  23)          109.3301         0.327925   
    110. A(C   4,C  11,H  23)          109.9674         0.326015   
    111. A(C   6,C  12,C  17)          113.6329         0.372353   
    112. A(C  17,C  12,H  26)          109.0188         0.328473   
    113. A(C   6,C  12,H  26)          108.2755         0.325760   
    114. A(C  17,C  12,H  25)          109.0823         0.328566   
    115. A(C   6,C  12,H  25)          110.1242         0.325852   
    116. A(H  25,C  12,H  26)          106.4505         0.289172   
    117. A(C   6,C  13,C  15)          121.0891         0.434902   
    118. A(C  15,C  13,H  27)          119.1823         0.355162   
    119. A(C   6,C  13,H  27)          119.7282         0.353751   
    120. A(C   9,C  14,H  28)          120.7534         0.355609   
    121. A(C   9,C  14,C  10)          120.2337         0.435854   
    122. A(C  10,C  14,H  28)          119.0128         0.354887   
    123. A(C  13,C  15,H  29)          120.9559         0.355465   
    124. A(C   8,C  15,H  29)          118.4221         0.353887   
    125. A(C   8,C  15,C  13)          120.6220         0.434686   
    126. A(C  11,C  16,H  30)          115.6579         0.329603   
    127. A(C  18,C  16,H  30)          119.1082         0.367381   
    128. A(C  11,C  16,C  18)          125.2334         0.419327   
    129. A(C  12,C  17,C  19)          125.1573         0.420808   
    130. A(C  19,C  17,H  31)          119.2062         0.368051   
    131. A(C  12,C  17,H  31)          115.6355         0.330032   
    132. A(C  16,C  18,H  34)          121.6250         0.368425   
    133. A(H  34,C  18,H  35)          116.7509         0.292801   
    134. A(C  16,C  18,H  35)          121.6024         0.367756   
    135. A(C  17,C  19,H  37)          121.5787         0.368618   
    136. A(C  17,C  19,H  36)          121.6334         0.369103   
    137. A(H  36,C  19,H  37)          116.7876         0.292886   
    138. A(C  56,H  20,O  57)           22.3529         0.097020   
    139. A(C   5,H  20,C  56)          135.3258         0.126447   
    140. A(O  55,H  20,C  56)           25.7859         0.096512   
    141. A(O  55,H  20,O  57)           45.3114         0.097771   
    142. A(C   5,H  20,O  55)          110.0363         0.129951   
    143. A(C   5,H  20,O  57)          145.4136         0.132721   
    144. A(C  11,H  24,O  57)          146.9391         0.127190   
    145. A(O  44,H  32,H  53)           96.3999         0.101720   
    146. A(O   0,H  32,H  53)           68.9802         0.120155   
    147. A(O   0,H  32,O  44)          146.6154         0.182367   
    148. A(C  41,O  40,C  43)          109.6836         0.413279   
    149. A(H  39,C  41,O  40)          109.1553         0.335473   
    150. A(C  42,C  41,H  47)          111.9238         0.325809   
    151. A(O  40,C  41,H  47)          109.1955         0.335903   
    152. A(H  39,C  41,H  47)          111.2217         0.291309   
    153. A(O  40,C  41,C  42)          103.2980         0.377504   
    154. A(H  39,C  41,C  42)          111.7062         0.325397   
    155. A(O  45,C  42,F  46)          108.9678         0.406174   
    156. A(C  41,C  42,F  46)          110.9106         0.385095   
    157. A(H  38,C  42,F  46)          107.7616         0.342429   
    158. A(C  41,C  42,O  45)          103.8141         0.385409   
    159. A(H  38,C  42,O  45)          109.3469         0.342698   
    160. A(H  38,C  42,C  41)          115.8498         0.325837   
    161. A(O  44,C  43,O  45)          124.0539         0.479319   
    162. A(O  40,C  43,O  45)          110.2330         0.431928   
    163. A(O  40,C  43,O  44)          125.7122         0.486900   
    164. A(H  32,O  44,C  43)          145.4132         0.220392   
    165. A(C  42,O  45,C  43)          110.2156         0.415816   
    166. A(C  52,C  50,O  54)          103.6038         0.376882   
    167. A(H  49,C  50,O  54)          109.0311         0.335300   
    168. A(H  48,C  50,O  54)          109.2863         0.335794   
    169. A(H  49,C  50,C  52)          112.0625         0.324854   
    170. A(H  48,C  50,C  52)          111.8713         0.325327   
    171. A(H  48,C  50,H  49)          110.6994         0.291192   
    172. A(H  53,C  52,O  55)          109.2606         0.342303   
    173. A(F  51,C  52,O  55)          108.8717         0.405921   
    174. A(C  50,C  52,O  55)          103.5688         0.384440   
    175. A(F  51,C  52,H  53)          108.5054         0.342541   
    176. A(C  50,C  52,H  53)          115.7857         0.325356   
    177. A(C  50,C  52,F  51)          110.6032         0.384718   
    178. A(C   8,H  53,H  32)           39.5311         0.094832   
    179. A(O   0,H  53,C   8)           26.4003         0.100864   
    180. A(C   8,H  53,C  52)          132.5580         0.129296   
    181. A(O   0,H  53,H  32)           21.1281         0.097634   
    182. A(H  32,H  53,C  52)          135.5501         0.118328   
    183. A(O   0,H  53,C  52)          151.1146         0.148661   
    184. A(C  50,O  54,C  56)          109.6573         0.412071   
    185. A(H  20,O  55,C  56)           83.3125         0.141557   
    186. A(H  20,O  55,C  52)          139.9594         0.140000   
    187. A(C  52,O  55,C  56)          110.5644         0.415285   
    188. A(H  20,C  56,O  57)           67.8530         0.144824   
    189. A(H  20,C  56,O  55)           70.9016         0.137060   
    190. A(H  20,C  56,O  54)          137.5440         0.137836   
    191. A(O  55,C  56,O  57)          124.1827         0.479563   
    192. A(O  54,C  56,O  57)          125.7370         0.485868   
    193. A(O  54,C  56,O  55)          110.0714         0.430669   
    194. A(H  20,O  57,H  24)           45.0585         0.097247   
    195. A(H  24,O  57,C  56)          123.7184         0.146401   
    196. A(H  20,O  57,C  56)           89.7942         0.154177   
    197. D(C   9,C   3,C   2,C   8)    -68.3419         0.012830   
    198. D(C   9,C   3,C   2,C   7)    111.7842         0.012830   
    199. D(C   5,C   3,C   2,C   7)    -67.5668         0.012830   
    200. D(C   5,C   3,C   2,C   8)    112.3071         0.012830   
    201. D(H  20,C   5,C   3,C   9)    179.0006         0.025663   
    202. D(H  20,C   5,C   4,C  11)     -1.3248         0.026373   
    203. D(C   4,C   5,C   3,C   2)   -179.1363         0.025663   
    204. D(H  20,C   5,C   3,C   2)     -1.6278         0.025663   
    205. D(C   4,C   5,C   3,C   9)      1.4920         0.025663   
    206. D(H  20,C   5,C   4,C  10)   -179.0755         0.026373   
    207. D(C   3,C   5,C   4,C  11)    176.2013         0.026373   
    208. D(C   3,C   5,C   4,C  10)     -1.5494         0.026373   
    209. D(H  21,C   7,C   2,C   3)      0.3368         0.025741   
    210. D(C   6,C   7,C   2,C   3)   -179.0490         0.025741   
    211. D(H  21,C   7,C   6,C  12)     -0.5555         0.026249   
    212. D(H  21,C   7,C   6,C  13)   -179.6198         0.026249   
    213. D(C   2,C   7,C   6,C  13)     -0.2403         0.026249   
    214. D(C   6,C   7,C   2,C   8)      1.0728         0.025741   
    215. D(C   2,C   7,C   6,C  12)    178.8240         0.026249   
    216. D(H  21,C   7,C   2,C   8)   -179.5413         0.025741   
    217. D(H  53,C   8,C   2,C   3)    -65.5513         0.025946   
    218. D(C  15,C   8,C   2,C   7)     -1.2688         0.025946   
    219. D(C  15,C   8,C   2,C   3)    178.8550         0.025946   
    220. D(O   0,C   8,C   2,C   3)     -2.5959         0.025946   
    221. D(C  15,C   8,O   0,H  53)     81.3619         0.033845   
    222. D(H  53,C   8,O   0,H  32)     93.5587         0.033845   
    223. D(C   2,C   8,O   0,H  53)    -97.2313         0.033845   
    224. D(O   0,C   8,C   2,C   7)    177.2803         0.025946   
    225. D(C   2,C   8,O   0,H  32)     -3.6726         0.033845   
    226. D(C  15,C   8,O   0,H  32)    174.9205         0.033845   
    227. D(C  14,C   9,C   3,C   2)   -179.3599         0.025738   
    228. D(H  22,C   9,C   3,C   5)    179.1108         0.025738   
    229. D(H  22,C   9,C   3,C   2)     -0.2565         0.025738   
    230. D(C  14,C   9,C   3,C   5)      0.0074         0.025738   
    231. D(O   1,C  10,C   4,C  11)     -0.1974         0.024599   
    232. D(C  14,C  10,C   4,C  11)   -177.6111         0.024599   
    233. D(O   1,C  10,C   4,C   5)    177.5309         0.024599   
    234. D(C  14,C  10,C   4,C   5)      0.1172         0.024599   
    235. D(C   4,C  10,O   1,H  33)     24.7170         0.028126   
    236. D(C  14,C  10,O   1,H  33)   -157.7833         0.028126   
    237. D(H  24,C  11,C   4,C   5)      0.9838         0.011521   
    238. D(H  23,C  11,C   4,C  10)     63.1323         0.011521   
    239. D(C  16,C  11,C   4,C  10)    -59.9357         0.011521   
    240. D(C  16,C  11,C   4,C   5)    122.3971         0.011521   
    241. D(H  23,C  11,C   4,C   5)   -114.5349         0.011521   
    242. D(H  26,C  12,C   6,C   7)    179.5995         0.011383   
    243. D(H  25,C  12,C   6,C  13)    114.6435         0.011383   
    244. D(H  25,C  12,C   6,C   7)    -64.3839         0.011383   
    245. D(C  17,C  12,C   6,C   7)     58.3268         0.011383   
    246. D(C  17,C  12,C   6,C  13)   -122.6458         0.011383   
    247. D(H  27,C  13,C   6,C  12)      0.3122         0.026241   
    248. D(H  27,C  13,C   6,C   7)    179.3703         0.026241   
    249. D(C  15,C  13,C   6,C  12)   -179.4589         0.026241   
    250. D(C  15,C  13,C   6,C   7)     -0.4008         0.026241   
    251. D(H  28,C  14,C  10,C   4)   -178.6747         0.026907   
    252. D(H  28,C  14,C  10,O   1)      3.7823         0.026907   
    253. D(C   9,C  14,C  10,C   4)      1.3252         0.026907   
    254. D(C   9,C  14,C  10,O   1)   -176.2178         0.026907   
    255. D(H  28,C  14,C   9,H  22)     -0.4953         0.027602   
    256. D(H  28,C  14,C   9,C   3)    178.6109         0.027602   
    257. D(C  10,C  14,C   9,H  22)    179.5048         0.027602   
    258. D(C  10,C  14,C   9,C   3)     -1.3890         0.027602   
    259. D(C  13,C  15,C   8,O   0)   -177.9835         0.028347   
    260. D(H  29,C  15,C  13,C   6)   -179.7819         0.027583   
    261. D(C   8,C  15,C  13,H  27)   -179.5912         0.027583   
    262. D(C   8,C  15,C  13,C   6)      0.1811         0.027583   
    263. D(H  29,C  15,C   8,C   2)   -179.3608         0.028347   
    264. D(H  29,C  15,C   8,O   0)      1.9804         0.028347   
    265. D(H  29,C  15,C  13,H  27)      0.4458         0.027583   
    266. D(C  13,C  15,C   8,H  53)   -122.9208         0.028347   
    267. D(C  13,C  15,C   8,C   2)      0.6753         0.028347   
    268. D(H  30,C  16,C  11,H  23)   -178.1506         0.012330   
    269. D(C  18,C  16,C  11,C   4)    125.0054         0.012330   
    270. D(C  18,C  16,C  11,H  23)      1.5903         0.012330   
    271. D(H  30,C  16,C  11,C   4)    -54.7354         0.012330   
    272. D(C  18,C  16,C  11,H  24)   -114.2489         0.012330   
    273. D(H  31,C  17,C  12,H  25)    179.9018         0.012533   
    274. D(H  31,C  17,C  12,C   6)     56.6196         0.012533   
    275. D(C  19,C  17,C  12,H  26)    116.1296         0.012533   
    276. D(C  19,C  17,C  12,H  25)      0.2681         0.012533   
    277. D(C  19,C  17,C  12,C   6)   -123.0141         0.012533   
    278. D(H  35,C  18,C  16,H  30)   -179.1352         0.043362   
    279. D(H  35,C  18,C  16,C  11)      1.1322         0.043362   
    280. D(H  34,C  18,C  16,H  30)     -0.8870         0.043362   
    281. D(H  34,C  18,C  16,C  11)    179.3804         0.043362   
    282. D(H  37,C  19,C  17,C  12)      0.0490         0.044453   
    283. D(H  36,C  19,C  17,H  31)      0.6080         0.044453   
    284. D(H  36,C  19,C  17,C  12)   -179.7703         0.044453   
    285. D(H  37,C  19,C  17,H  31)   -179.5727         0.044453   
    286. D(O  55,H  20,C   5,C   4)     98.0556         0.140834   
    287. D(C  56,H  20,C   5,C   3)    -85.6534         0.140834   
    288. D(O  55,H  20,C   5,C   3)    -79.5576         0.140834   
    289. D(O  57,H  20,C   5,C   4)     60.2216         0.140834   
    290. D(O  57,H  20,C   5,C   3)   -117.3916         0.140834   
    291. D(O  57,H  24,C  11,H  23)     59.8852         0.118172   
    292. D(O  57,H  24,C  11,C  16)    177.6850         0.118172   
    293. D(O  57,H  24,C  11,C   4)    -58.0534         0.118172   
    294. D(H  53,H  32,O   0,C   8)    -99.1592         0.346088   
    295. D(O  44,H  32,O   0,H  53)    -68.5255         0.346088   
    296. D(O  44,H  32,O   0,C   8)   -167.6847         0.346088   
    297. D(H  47,C  41,O  40,C  43)   -132.7512         0.017778   
    298. D(C  42,C  41,O  40,C  43)    -13.5071         0.017778   
    299. D(H  39,C  41,O  40,C  43)    105.4669         0.017778   
    300. D(O  45,C  42,C  41,H  47)    133.6450         0.011549   
    301. D(O  45,C  42,C  41,O  40)     16.3020         0.011549   
    302. D(O  45,C  42,C  41,H  39)   -100.8910         0.011549   
    303. D(H  38,C  42,C  41,H  47)   -106.4731         0.011549   
    304. D(H  38,C  42,C  41,O  40)    136.1840         0.011549   
    305. D(H  38,C  42,C  41,H  39)     18.9910         0.011549   
    306. D(O  45,C  43,O  40,C  41)      5.4236         0.032468   
    307. D(O  44,C  43,O  40,C  41)   -174.2601         0.032468   
    308. D(H  32,O  44,C  43,O  45)   -110.6961         0.118680   
    309. D(H  32,O  44,C  43,O  40)     68.9456         0.118680   
    310. D(C  43,O  44,H  32,H  53)    141.6571         0.001547   
    311. D(C  43,O  44,H  32,O   0)   -157.4038         0.001547   
    312. D(C  42,O  45,C  43,O  44)   -174.1928         0.027037   
    313. D(C  42,O  45,C  43,O  40)      6.1173         0.027037   
    314. D(C  43,O  45,C  42,F  46)    104.1983         0.022755   
    315. D(C  43,O  45,C  42,C  41)    -14.0410         0.022755   
    316. D(C  43,O  45,C  42,H  38)   -138.2495         0.022755   
    317. D(H  53,C  52,C  50,O  54)    135.1795         0.011369   
    318. D(H  53,C  52,C  50,H  49)     17.7872         0.011369   
    319. D(H  53,C  52,C  50,H  48)   -107.2190         0.011369   
    320. D(F  51,C  52,C  50,O  54)   -100.8893         0.011369   
    321. D(F  51,C  52,C  50,H  49)    141.7184         0.011369   
    322. D(F  51,C  52,C  50,H  48)     16.7122         0.011369   
    323. D(C  52,H  53,O   0,C   8)     59.8325         0.001502   
    324. D(C   8,H  53,C  52,C  50)    -75.3316         0.165543   
    325. D(H  32,H  53,C  52,O  55)    -14.9171         0.165543   
    326. D(H  32,H  53,C  52,F  51)    103.6549         0.165543   
    327. D(H  32,H  53,C  52,C  50)   -131.3286         0.165543   
    328. D(O   0,H  53,C  52,O  55)      9.6212         0.165543   
    329. D(O   0,H  53,C  52,F  51)    128.1931         0.165543   
    330. D(O   0,H  53,C  52,C  50)   -106.7904         0.165543   
    331. D(C   8,H  53,H  32,O   0)     39.7951         0.001501   
    332. D(O   0,H  53,H  32,O  44)    148.9846         0.001501   
    333. D(C  52,H  53,H  32,O  44)    -64.8337         0.001501   
    334. D(C  52,H  53,H  32,O   0)    146.1817         0.001501   
    335. D(H  32,H  53,C   8,C  15)   -147.6963         0.001500   
    336. D(H  32,H  53,C   8,C   2)     84.6803         0.001500   
    337. D(H  32,H  53,C   8,O   0)    -31.2559         0.001500   
    338. D(C   8,H  53,H  32,O  44)   -171.2203         0.001501   
    339. D(O   0,H  53,C   8,C  15)   -116.4404         0.001500   
    340. D(O   0,H  53,C   8,C   2)    115.9362         0.001500   
    341. D(C  52,H  53,C   8,C  15)     98.0994         0.001500   
    342. D(C  52,H  53,C   8,C   2)    -29.5239         0.001500   
    343. D(C  52,H  53,C   8,O   0)   -145.4602         0.001500   
    344. D(C   8,H  53,O   0,H  32)   -113.6208         0.001502   
    345. D(H  32,H  53,O   0,C   8)    113.6208         0.001502   
    346. D(C   8,H  53,C  52,F  51)    159.6519         0.165543   
    347. D(C  52,H  53,O   0,H  32)    -53.7883         0.001502   
    348. D(C  56,O  54,C  50,C  52)    -12.6659         0.017733   
    349. D(C  56,O  54,C  50,H  49)    106.8244         0.017733   
    350. D(C  56,O  54,C  50,H  48)   -132.0555         0.017733   
    351. D(H  20,O  55,C  52,H  53)    -33.0241         0.026197   
    352. D(H  20,O  55,C  52,F  51)   -151.3674         0.026197   
    353. D(H  20,O  55,C  52,C  50)     90.9184         0.026197   
    354. D(C  56,O  55,C  52,H  53)   -137.6868         0.026197   
    355. D(C  56,O  55,C  52,F  51)    103.9699         0.026197   
    356. D(C  56,O  55,C  52,C  50)    -13.7443         0.026197   
    357. D(C  56,O  55,H  20,O  57)    -19.4416         0.001500   
    358. D(C  56,O  55,H  20,C   5)   -170.1174         0.001500   
    359. D(C  52,O  55,H  20,C  56)   -114.2181         0.001500   
    360. D(C  52,O  55,H  20,O  57)   -133.6596         0.001500   
    361. D(C  52,O  55,H  20,C   5)     75.6645         0.001500   
    362. D(H  20,C  56,O  55,C  52)    141.1972         0.034806   
    363. D(O  57,C  56,O  55,H  20)     44.1588         0.034806   
    364. D(O  57,C  56,O  55,C  52)   -174.6440         0.034806   
    365. D(O  54,C  56,O  55,H  20)   -134.8089         0.034806   
    366. D(O  54,C  56,O  55,C  52)      6.3883         0.034806   
    367. D(H  20,C  56,O  54,C  50)    -78.6055         0.034689   
    368. D(O  57,C  56,O  54,C  50)   -174.2548         0.034689   
    369. D(O  55,C  56,O  54,C  50)      4.6932         0.034689   
    370. D(O  57,C  56,H  20,C   5)   -128.2641         0.001500   
    371. D(O  55,C  56,H  20,O  57)    141.5222         0.001500   
    372. D(O  55,C  56,H  20,C   5)     13.2581         0.001500   
    373. D(O  54,C  56,H  20,O  55)     99.1824         0.001500   
    374. D(O  54,C  56,H  20,O  57)   -119.2953         0.001500   
    375. D(O  54,C  56,H  20,C   5)    112.4405         0.001500   
    376. D(H  24,O  57,C  56,O  55)    -13.6872         0.144735   
    377. D(H  24,O  57,C  56,O  54)    165.1183         0.144735   
    378. D(H  20,O  57,C  56,O  55)    -45.2955         0.144735   
    379. D(H  20,O  57,C  56,O  54)    133.5100         0.144735   
    380. D(H  20,O  57,H  24,C  11)     67.6857         0.001500   
    381. D(C  56,O  57,H  24,C  11)     19.9167         0.001500   
    382. D(H  24,O  57,H  20,C  56)   -141.9837         0.001500   
    383. D(H  24,O  57,H  20,O  55)   -119.6055         0.001500   
    384. D(H  24,O  57,H  20,C   5)    -65.4556         0.001500   
    385. D(C  56,O  57,H  20,O  55)     22.3782         0.001500   
    386. D(H  24,O  57,C  56,H  20)     31.6083         0.144735   
    387. D(C  56,O  57,H  20,C   5)     76.5280         0.001500   
    -----------------------------------------------------------------

Number of atoms                         .... 58
Number of degrees of freedom            .... 387


         *************************************************************
         *                GEOMETRY OPTIMIZATION CYCLE   1            *
         *************************************************************
---------------------------------
CARTESIAN COORDINATES (ANGSTROEM)
---------------------------------
  O      1.638663    1.889407    2.174838
  O     -3.651792   -1.526389    2.013172
  C      1.493124    0.207955    0.406328
  C      0.139193   -0.260656    0.813751
  C     -2.258380   -0.420429    0.355128
  C     -0.972299   -0.015638    0.004228
  C      3.399435    0.024209   -1.121116
  C      2.126139   -0.357806   -0.702231
  C      2.166189    1.220919    1.111737
  C     -0.056956   -0.966132    2.002687
  C     -2.418184   -1.127463    1.555391
  C     -3.445408   -0.056944   -0.514471
  C      4.057457   -0.638628   -2.317056
  C      4.048303    1.018413   -0.390831
  C     -1.321643   -1.408068    2.363279
  C      3.442840    1.610845    0.708009
  C     -4.228416   -1.246620   -1.004119
  C      3.262041   -0.516372   -3.587324
  C     -5.535129   -1.429355   -0.831699
  C      2.844233   -1.535314   -4.328721
  H     -0.841892    0.544302   -0.913790
  H      1.601177   -1.133396   -1.248483
  H      0.787531   -1.184465    2.644812
  H     -4.114705    0.618817    0.029458
  H     -3.074018    0.507072   -1.373993
  H      4.238069   -1.698033   -2.108429
  H      5.040724   -0.179845   -2.466098
  H      5.044346    1.334837   -0.680240
  H     -1.471422   -1.974363    3.273595
  H      3.947607    2.385662    1.271823
  H     -3.654009   -2.002609   -1.533868
  H      3.020007    0.498118   -3.895061
  H      0.721278    1.639079    2.370364
  H     -4.266637   -1.608175    1.267574
  H     -6.041833   -2.304749   -1.218054
  H     -6.149843   -0.694465   -0.321167
  H      2.276473   -1.381017   -5.237839
  H      3.057894   -2.562992   -4.054127
  H     -5.026637    0.991777    3.554606
  H     -3.602814   -0.621494    4.672016
  O     -2.109544    0.792366    4.878997
  C     -3.479267    0.396810    5.039615
  C     -4.237839    1.402506    4.180357
  C     -2.003907    1.651158    3.850143
  O     -0.988387    2.082128    3.407562
  O     -3.243963    1.964133    3.366127
  F     -4.792202    2.393994    4.958216
  H     -3.752451    0.472170    6.089598
  H      0.993861    5.998129   -1.052882
  H      1.924132    4.469263   -1.137068
  C      0.932936    4.912190   -1.038132
  F     -0.521645    5.414817    0.788327
  C      0.196774    4.400453    0.198093
  H      0.817336    3.929929    0.957296
  O      0.111324    4.468713   -2.127931
  O     -0.698882    3.452136   -0.320947
  C     -0.789988    3.571047   -1.680459
  O     -1.545433    2.951136   -2.355341

----------------------------
CARTESIAN COORDINATES (A.U.)
----------------------------
  NO LB      ZA    FRAG     MASS         X           Y           Z
   0 O     8.0000    0    15.999    3.096624    3.570461    4.109848
   1 O     8.0000    0    15.999   -6.900887   -2.884458    3.804343
   2 C     6.0000    0    12.011    2.821596    0.392978    0.767849
   3 C     6.0000    0    12.011    0.263037   -0.492569    1.537767
   4 C     6.0000    0    12.011   -4.267719   -0.794495    0.671095
   5 C     6.0000    0    12.011   -1.837379   -0.029552    0.007991
   6 C     6.0000    0    12.011    6.424000    0.045749   -2.118603
   7 C     6.0000    0    12.011    4.017821   -0.676155   -1.327024
   8 C     6.0000    0    12.011    4.093503    2.307203    2.100879
   9 C     6.0000    0    12.011   -0.107632   -1.825724    3.784530
  10 C     6.0000    0    12.011   -4.569706   -2.130596    2.939263
  11 C     6.0000    0    12.011   -6.510878   -0.107609   -0.972210
  12 C     6.0000    0    12.011    7.667483   -1.206832   -4.378601
  13 C     6.0000    0    12.011    7.650184    1.924521   -0.738563
  14 C     6.0000    0    12.011   -2.497543   -2.660863    4.465951
  15 C     6.0000    0    12.011    6.506025    3.044055    1.337943
  16 C     6.0000    0    12.011   -7.990548   -2.355770   -1.897510
  17 C     6.0000    0    12.011    6.164364   -0.975802   -6.779060
  18 C     6.0000    0    12.011  -10.459878   -2.701089   -1.571684
  19 C     6.0000    0    12.011    5.374822   -2.901324   -8.180097
  20 H     1.0000    0     1.008   -1.590945    1.028581   -1.726812
  21 H     1.0000    0     1.008    3.025785   -2.141808   -2.359292
  22 H     1.0000    0     1.008    1.488218   -2.238315    4.997970
  23 H     1.0000    0     1.008   -7.775665    1.169395    0.055667
  24 H     1.0000    0     1.008   -5.809052    0.958226   -2.596470
  25 H     1.0000    0     1.008    8.008790   -3.208818   -3.984353
  26 H     1.0000    0     1.008    9.525588   -0.339859   -4.660249
  27 H     1.0000    0     1.008    9.532433    2.522476   -1.285466
  28 H     1.0000    0     1.008   -2.780585   -3.731006    6.186197
  29 H     1.0000    0     1.008    7.459896    4.508247    2.403397
  30 H     1.0000    0     1.008   -6.905076   -3.784382   -2.898591
  31 H     1.0000    0     1.008    5.706985    0.941308   -7.360599
  32 H     1.0000    0     1.008    1.363017    3.097410    4.479339
  33 H     1.0000    0     1.008   -8.062775   -3.039011    2.395368
  34 H     1.0000    0     1.008  -11.417410   -4.355345   -2.301788
  35 H     1.0000    0     1.008  -11.621519   -1.312349   -0.606918
  36 H     1.0000    0     1.008    4.301911   -2.609743   -9.898081
  37 H     1.0000    0     1.008    5.778582   -4.843353   -7.661191
  38 H     1.0000    0     1.008   -9.498968    1.874187    6.717232
  39 H     1.0000    0     1.008   -6.808331   -1.174453    8.828830
  40 O     8.0000    0    15.999   -3.986461    1.497356    9.219968
  41 C     6.0000    0    12.011   -6.574862    0.749862    9.523493
  42 C     6.0000    0    12.011   -8.008355    2.650353    7.899730
  43 C     6.0000    0    12.011   -3.786836    3.120237    7.275715
  44 O     8.0000    0    15.999   -1.867781    3.934652    6.439359
  45 O     8.0000    0    15.999   -6.130202    3.711673    6.361059
  46 F     9.0000    0    18.998   -9.055949    4.523993    9.369671
  47 H     1.0000    0     1.008   -7.091104    0.892273   11.507673
  48 H     1.0000    0     1.008    1.878125   11.334821   -1.989660
  49 H     1.0000    0     1.008    3.636083    8.445683   -2.148746
  50 C     6.0000    0    12.011    1.762994    9.282694   -1.961786
  51 F     9.0000    0    18.998   -0.985767   10.232521    1.489721
  52 C     6.0000    0    12.011    0.371849    8.315650    0.374341
  53 H     1.0000    0     1.008    1.544542    7.426489    1.809027
  54 O     8.0000    0    15.999    0.210371    8.444644   -4.021206
  55 O     8.0000    0    15.999   -1.320696    6.523592   -0.606503
  56 C     6.0000    0    12.011   -1.492861    6.748301   -3.175607
  57 O     8.0000    0    15.999   -2.920444    5.576838   -4.450949

--------------------------------
INTERNAL COORDINATES (ANGSTROEM)
--------------------------------
 O      0   0   0     0.000000000000     0.00000000     0.00000000
 O      1   0   0     6.299421452906     0.00000000     0.00000000
 C      1   2   0     2.444603610896    63.79851289     0.00000000
 C      3   1   2     1.489536790694    94.16498988     0.04388634
 C      2   1   3     2.431841881913    44.73935885   316.74165047
 C      5   2   1     1.393194036717   146.38687885    30.77161223
 C      3   1   2     2.449666838289   117.15164683   179.77959256
 C      7   3   1     1.393800903213    28.62848819   182.08985806
 C      1   2   3     1.362109316136    92.24130169   358.92253475
 C      4   3   1     1.396330322114   121.30083409   290.45671331
 C      2   1   3     1.374952139023    25.54093176   356.84364870
 C      5   2   1     1.515704866408    92.95181780   214.54818386
 C      7   3   1     1.517438221987   149.50172208   180.10095429
 C      7   3   1     1.393838983040    88.97287662     1.87688863
 C     10   4   3     1.387359520731   120.68397076   180.64013729
 C     14   7   3     1.387447351311   121.08913050   359.48404281
 C     12   5   2     1.506049182911   113.84494645   299.96974727
 C     13   7   3     1.503733583859   113.63291201    59.43702267
 C     17  12   5     1.330646511541   125.23343210   125.00542262
 C     18  13   7     1.327582627729   125.15727354   236.98588932
 H      6   5   2     1.083187789753   118.34584201   183.05718278
 H      8   7   3     1.084213276587   119.14180789   180.62052231
 H     10   4   3     1.083121638941   119.80904196   359.74354217
 H     12   5   2     1.095659773660   109.96735601    63.03771794
 H     12   5   2     1.093079227753   107.98636254   178.55640117
 H     13   7   3     1.094753545157   110.12423932   296.72634849
 H     13   7   3     1.095220544132   108.27549299   180.70970524
 H     14   7   3     1.084427721298   119.72817381   179.25511080
 H     15  10   4     1.082496176980   120.75344303   178.61088053
 H     16  14   7     1.083059549087   120.95589245   180.21812794
 H     17  12   5     1.087242741472   115.65789532   305.26455876
 H     18  13   7     1.087416389752   115.63551666    56.61964335
 H      1   2   3     0.970818980985    21.83539233   164.72926078
 H      2   1   3     0.969865321322   126.71713683   302.63962836
 H     19  17  12     1.082744074763   121.62496202   179.38037339
 H     19  17  12     1.085623514120   121.60236475     1.13218862
 H     20  18  13     1.082891753115   121.63342323   180.22971508
 H     20  18  13     1.084976396582   121.57874301     0.04903416
 H      2   1   3     3.256897657686    85.59111305   204.33244261
 H     39   2   1     2.424566242325    57.02740415   282.85221758
 O     40  39   2     2.066808191904    90.87466971   109.47256049
 C     40  39   2     1.089649633012    66.43693932   143.33035854
 C     39   2   1     1.087412126038   104.96201622   327.12010609
 C     41  40  39     1.344330209334   114.65392270   324.30350272
 O     44  41  40     1.188652054611   125.71222092   217.61908363
 O     44  41  40     1.367465763334   110.23304838    37.30270690
 F     43  39   2     1.376746337542   107.76162968   185.73621161
 H     42  40  39     1.087553629796   111.22169321   117.61247842
 H     30  16  14     5.213328109090    89.97306218   102.81460810
 H     49  30  16     1.791625634799    30.17019319   321.50663866
 C     49  30  16     1.087746353711    48.23398060    10.42201128
 F     51  49  30     2.388387245802    80.46703406    93.08326593
 C     52  51  49     1.376022223445    36.76212457   195.70016392
 H     53  52  51     1.087602590665   108.50535156   128.01702096
 O     51  49  30     1.435053601097   109.28625165   198.17702209
 O     53  52  51     1.403889873717   108.87174616   246.83445695
 C     55  51  49     1.348479852701   109.65730361   227.94453569
 O     57  55  51     1.187624939726   125.73697774   185.74521022

---------------------------
INTERNAL COORDINATES (A.U.)
---------------------------
 O      0   0   0     0.000000000000     0.00000000     0.00000000
 O      1   0   0    11.904181348140     0.00000000     0.00000000
 C      1   2   0     4.619631330588    63.79851289     0.00000000
 C      3   1   2     2.814816600811    94.16498988     0.04388634
 C      2   1   3     4.595515157815    44.73935885   316.74165047
 C      5   2   1     2.632755180807   146.38687885    30.77161223
 C      3   1   2     4.629199443715   117.15164683   179.77959256
 C      7   3   1     2.633901992284    28.62848819   182.08985806
 C      1   2   3     2.574013571960    92.24130169   358.92253475
 C      4   3   1     2.638681901286   121.30083409   290.45671331
 C      2   1   3     2.598282990002    25.54093176   356.84364870
 C      5   2   1     2.864267097364    92.95181780   214.54818386
 C      7   3   1     2.867542664701   149.50172208   180.10095429
 C      7   3   1     2.633973952729    88.97287662     1.87688863
 C     10   4   3     2.621729543469   120.68397076   180.64013729
 C     14   7   3     2.621895519212   121.08913050   359.48404281
 C     12   5   2     2.846020499917   113.84494645   299.96974727
 C     13   7   3     2.841644651874   113.63291201    59.43702267
 C     17  12   5     2.514557487871   125.23343210   125.00542262
 C     18  13   7     2.508767586559   125.15727354   236.98588932
 H      6   5   2     2.046928274241   118.34584201   183.05718278
 H      8   7   3     2.048866163511   119.14180789   180.62052231
 H     10   4   3     2.046803267323   119.80904196   359.74354217
 H     12   5   2     2.070496908171   109.96735601    63.03771794
 H     12   5   2     2.065620383131   107.98636254   178.55640117
 H     13   7   3     2.068784384485   110.12423932   296.72634849
 H     13   7   3     2.069666884653   108.27549299   180.70970524
 H     14   7   3     2.049271405285   119.72817381   179.25511080
 H     15  10   4     2.045621315508   120.75344303   178.61088053
 H     16  14   7     2.046685934502   120.95589245   180.21812794
 H     17  12   5     2.054591022476   115.65789532   305.26455876
 H     18  13   7     2.054919170168   115.63551666    56.61964335
 H      1   2   3     1.834581999674    21.83539233   164.72926078
 H      2   1   3     1.832779844086   126.71713683   302.63962836
 H     19  17  12     2.046089774428   121.62496202   179.38037339
 H     19  17  12     2.051531126233   121.60236475     1.13218862
 H     20  18  13     2.046368846069   121.63342323   180.22971508
 H     20  18  13     2.050308251308   121.57874301     0.04903416
 H      2   1   3     6.154644619236    85.59111305   204.33244261
 H     39   2   1     4.581766191544    57.02740415   282.85221758
 O     40  39   2     3.905701454044    90.87466971   109.47256049
 C     40  39   2     2.059139388320    66.43693932   143.33035854
 C     39   2   1     2.054911112916   104.96201622   327.12010609
 C     41  40  39     2.540415929198   114.65392270   324.30350272
 O     44  41  40     2.246226851737   125.71222092   217.61908363
 O     44  41  40     2.584135790215   110.23304838    37.30270690
 F     43  39   2     2.601673533833   107.76162968   185.73621161
 H     42  40  39     2.055178516266   111.22169321   117.61247842
 H     30  16  14     9.851762372454    89.97306218   102.81460810
 H     49  30  16     3.385681784284    30.17019319   321.50663866
 C     49  30  16     2.055542711685    48.23398060    10.42201128
 F     51  49  30     4.513397796316    80.46703406    93.08326593
 C     52  51  49     2.600305156501    36.76212457   195.70016392
 H     53  52  51     2.055271038901   108.50535156   128.01702096
 O     51  49  30     2.711858293571   109.28625165   198.17702209
 O     53  52  51     2.652967383510   108.87174616   246.83445695
 C     55  51  49     2.548257618715   109.65730361   227.94453569
 O     57  55  51     2.244285885897   125.73697774   185.74521022

---------------------
BASIS SET INFORMATION
---------------------
There are 4 groups of distinct atoms

 Group   1 Type O   : 11s6p2d1f contracted to 5s3p2d1f pattern {62111/411/11/1}
 Group   2 Type C   : 11s6p2d1f contracted to 5s3p2d1f pattern {62111/411/11/1}
 Group   3 Type H   : 5s1p contracted to 3s1p pattern {311/1}
 Group   4 Type F   : 11s6p2d1f contracted to 5s3p2d1f pattern {62111/411/11/1}

Atom   0O    basis set group =>   1
Atom   1O    basis set group =>   1
Atom   2C    basis set group =>   2
Atom   3C    basis set group =>   2
Atom   4C    basis set group =>   2
Atom   5C    basis set group =>   2
Atom   6C    basis set group =>   2
Atom   7C    basis set group =>   2
Atom   8C    basis set group =>   2
Atom   9C    basis set group =>   2
Atom  10C    basis set group =>   2
Atom  11C    basis set group =>   2
Atom  12C    basis set group =>   2
Atom  13C    basis set group =>   2
Atom  14C    basis set group =>   2
Atom  15C    basis set group =>   2
Atom  16C    basis set group =>   2
Atom  17C    basis set group =>   2
Atom  18C    basis set group =>   2
Atom  19C    basis set group =>   2
Atom  20H    basis set group =>   3
Atom  21H    basis set group =>   3
Atom  22H    basis set group =>   3
Atom  23H    basis set group =>   3
Atom  24H    basis set group =>   3
Atom  25H    basis set group =>   3
Atom  26H    basis set group =>   3
Atom  27H    basis set group =>   3
Atom  28H    basis set group =>   3
Atom  29H    basis set group =>   3
Atom  30H    basis set group =>   3
Atom  31H    basis set group =>   3
Atom  32H    basis set group =>   3
Atom  33H    basis set group =>   3
Atom  34H    basis set group =>   3
Atom  35H    basis set group =>   3
Atom  36H    basis set group =>   3
Atom  37H    basis set group =>   3
Atom  38H    basis set group =>   3
Atom  39H    basis set group =>   3
Atom  40O    basis set group =>   1
Atom  41C    basis set group =>   2
Atom  42C    basis set group =>   2
Atom  43C    basis set group =>   2
Atom  44O    basis set group =>   1
Atom  45O    basis set group =>   1
Atom  46F    basis set group =>   4
Atom  47H    basis set group =>   3
Atom  48H    basis set group =>   3
Atom  49H    basis set group =>   3
Atom  50C    basis set group =>   2
Atom  51F    basis set group =>   4
Atom  52C    basis set group =>   2
Atom  53H    basis set group =>   3
Atom  54O    basis set group =>   1
Atom  55O    basis set group =>   1
Atom  56C    basis set group =>   2
Atom  57O    basis set group =>   1
---------------------------------
AUXILIARY/J BASIS SET INFORMATION
---------------------------------
There are 4 groups of distinct atoms

 Group   1 Type O   : 12s5p4d2f1g contracted to 6s4p3d1f1g pattern {711111/2111/211/2/1}
 Group   2 Type C   : 12s5p4d2f1g contracted to 6s4p3d1f1g pattern {711111/2111/211/2/1}
 Group   3 Type H   : 5s2p1d contracted to 3s1p1d pattern {311/2/1}
 Group   4 Type F   : 12s5p4d2f1g contracted to 6s4p3d1f1g pattern {711111/2111/211/2/1}

Atom   0O    basis set group =>   1
Atom   1O    basis set group =>   1
Atom   2C    basis set group =>   2
Atom   3C    basis set group =>   2
Atom   4C    basis set group =>   2
Atom   5C    basis set group =>   2
Atom   6C    basis set group =>   2
Atom   7C    basis set group =>   2
Atom   8C    basis set group =>   2
Atom   9C    basis set group =>   2
Atom  10C    basis set group =>   2
Atom  11C    basis set group =>   2
Atom  12C    basis set group =>   2
Atom  13C    basis set group =>   2
Atom  14C    basis set group =>   2
Atom  15C    basis set group =>   2
Atom  16C    basis set group =>   2
Atom  17C    basis set group =>   2
Atom  18C    basis set group =>   2
Atom  19C    basis set group =>   2
Atom  20H    basis set group =>   3
Atom  21H    basis set group =>   3
Atom  22H    basis set group =>   3
Atom  23H    basis set group =>   3
Atom  24H    basis set group =>   3
Atom  25H    basis set group =>   3
Atom  26H    basis set group =>   3
Atom  27H    basis set group =>   3
Atom  28H    basis set group =>   3
Atom  29H    basis set group =>   3
Atom  30H    basis set group =>   3
Atom  31H    basis set group =>   3
Atom  32H    basis set group =>   3
Atom  33H    basis set group =>   3
Atom  34H    basis set group =>   3
Atom  35H    basis set group =>   3
Atom  36H    basis set group =>   3
Atom  37H    basis set group =>   3
Atom  38H    basis set group =>   3
Atom  39H    basis set group =>   3
Atom  40O    basis set group =>   1
Atom  41C    basis set group =>   2
Atom  42C    basis set group =>   2
Atom  43C    basis set group =>   2
Atom  44O    basis set group =>   1
Atom  45O    basis set group =>   1
Atom  46F    basis set group =>   4
Atom  47H    basis set group =>   3
Atom  48H    basis set group =>   3
Atom  49H    basis set group =>   3
Atom  50C    basis set group =>   2
Atom  51F    basis set group =>   4
Atom  52C    basis set group =>   2
Atom  53H    basis set group =>   3
Atom  54O    basis set group =>   1
Atom  55O    basis set group =>   1
Atom  56C    basis set group =>   2
Atom  57O    basis set group =>   1


           ************************************************************
           *        Program running with 25 parallel MPI-processes    *
           *              working on a common directory               *
           ************************************************************
------------------------------------------------------------------------------
                             ORCA STARTUP CALCULATIONS
                           -- RI-GTO INTEGRALS CHOSEN --
------------------------------------------------------------------------------
------------------------------------------------------------------------------
                   ___                                                        
                  /   \      - P O W E R E D   B Y -                         
                 /     \                                                     
                 |  |  |   _    _      __       _____    __    __             
                 |  |  |  | |  | |    /  \     |  _  \  |  |  /  |          
                  \  \/   | |  | |   /    \    | | | |  |  | /  /          
                 / \  \   | |__| |  /  /\  \   | |_| |  |  |/  /          
                |  |  |   |  __  | /  /__\  \  |    /   |      \           
                |  |  |   | |  | | |   __   |  |    \   |  |\   \          
                \     /   | |  | | |  |  |  |  | |\  \  |  | \   \       
                 \___/    |_|  |_| |__|  |__|  |_| \__\ |__|  \__/        
                                                                              
                      - O R C A' S   B I G   F R I E N D -                    
                                      &                                       
                       - I N T E G R A L  F E E D E R -                       
                                                                              
 v1 FN, 2020, v2 2021, v3 2022-2024                                           
------------------------------------------------------------------------------


----------------------
SHARK INTEGRAL PACKAGE
----------------------

Number of atoms                             ...     58
Number of basis functions                   ...   1198
Number of shells                            ...    470
Maximum angular momentum                    ...      3
Integral batch strategy                     ... SHARK/LIBINT Hybrid
RI-J (if used) integral strategy            ... SPLIT-RIJ (Revised 2003 algorithm where possible)
Printlevel                                  ...      1
Contraction scheme used                     ... SEGMENTED contraction
Prescreening option                         ... SCHWARTZ
   Thresh                                   ... 2.500e-11
   Tcut                                     ... 2.500e-12
   Tpresel                                  ... 2.500e-12 
Coulomb Range Separation                    ... NOT USED
Exchange Range Separation                   ... NOT USED
Multipole approximations                    ... NOT USED
Finite Nucleus Model                        ... NOT USED
CABS basis                                  ... NOT available
Auxiliary Coulomb fitting basis             ... AVAILABLE
   # of basis functions in Aux-J            ...   1930
   # of shells in Aux-J                     ...    630
   Maximum angular momentum in Aux-J        ...      4
Auxiliary J/K fitting basis                 ... NOT available
Auxiliary Correlation fitting basis         ... NOT available
Auxiliary 'external' fitting basis          ... NOT available

Checking pre-screening integrals            ... done (  0.0 sec) Dimension = 470
Check shell pair data                       ... done (  0.0 sec)
Shell pair information
Shell pair cut-off parameter TPreSel        ...   2.5e-12
Total number of shell pairs                 ...    110685
Shell pairs after pre-screening             ...     64385
Total number of primitive shell pairs       ...    340720
Primitive shell pairs kept                  ...    124272
          la=0 lb=0:  16695 shell pairs
          la=1 lb=0:  19052 shell pairs
          la=1 lb=1:   5452 shell pairs
          la=2 lb=0:   8874 shell pairs
          la=2 lb=1:   5220 shell pairs
          la=2 lb=2:   1235 shell pairs
          la=3 lb=0:   4068 shell pairs
          la=3 lb=1:   2474 shell pairs
          la=3 lb=2:   1064 shell pairs
          la=3 lb=3:    251 shell pairs

Calculating one electron integrals          ... done (  0.1 sec)
Calculating RI/J V-Matrix + Cholesky decomp.... done (  0.2 sec)
Calculating Nuclear repulsion               ... done (  0.0 sec) ENN=   3701.385506968078 Eh

Diagonalization of the overlap matrix:
Smallest eigenvalue                        ... 5.059e-06
Time for diagonalization                   ...    0.240 sec
Threshold for overlap eigenvalues          ... 1.000e-07
Number of eigenvalues below threshold      ... 0
Time for construction of square roots      ...    0.106 sec
Total time needed                          ...    0.356 sec

-------------------
DFT GRID GENERATION
-------------------

General Integration Accuracy     IntAcc      ... 4.388
Radial Grid Type                 RadialGrid  ... OptM3 with GC (2021)
Angular Grid (max. ang.)         AngularGrid ... 4 (Lebedev-302)
Angular grid pruning method      GridPruning ... 4 (adaptive)
Weight generation scheme         WeightScheme... mBecke (2022)
Basis function cutoff            BFCut       ... 1.0000e-11
Integration weight cutoff        WCut        ... 1.0000e-14
Partially contracted basis set               ... off
Rotationally invariant grid construction     ... off
Angular grids for H and He will be reduced by one unit

Total number of grid points                  ...   279692
Total number of batches                      ...     4401
Average number of points per batch           ...       63
Average number of grid points per atom       ...     4822

--------------------
COSX GRID GENERATION
--------------------

GRIDX 1
-------
General Integration Accuracy     IntAcc      ... 3.816
Radial Grid Type                 RadialGrid  ... OptM3 with GC (2021)
Angular Grid (max. ang.)         AngularGrid ... 1 (Lebedev-50)
Angular grid pruning method      GridPruning ... 4 (adaptive)
Weight generation scheme         WeightScheme... mBecke (2022)
Basis function cutoff            BFCut       ... 1.0000e-11
Integration weight cutoff        WCut        ... 1.0000e-14
Partially contracted basis set               ... on
Rotationally invariant grid construction     ... off
Angular grids for H and He will be reduced by one unit

Total number of grid points                  ...    35382
Total number of batches                      ...      312
Average number of points per batch           ...      113
Average number of grid points per atom       ...      610
UseSFitting                                  ... on

GRIDX 2
-------
General Integration Accuracy     IntAcc      ... 4.020
Radial Grid Type                 RadialGrid  ... OptM3 with GC (2021)
Angular Grid (max. ang.)         AngularGrid ... 2 (Lebedev-110)
Angular grid pruning method      GridPruning ... 4 (adaptive)
Weight generation scheme         WeightScheme... mBecke (2022)
Basis function cutoff            BFCut       ... 1.0000e-11
Integration weight cutoff        WCut        ... 1.0000e-14
Partially contracted basis set               ... on
Rotationally invariant grid construction     ... off
Angular grids for H and He will be reduced by one unit

Total number of grid points                  ...    76914
Total number of batches                      ...      632
Average number of points per batch           ...      121
Average number of grid points per atom       ...     1326
UseSFitting                                  ... on

GRIDX 3
-------
General Integration Accuracy     IntAcc      ... 4.338
Radial Grid Type                 RadialGrid  ... OptM3 with GC (2021)
Angular Grid (max. ang.)         AngularGrid ... 3 (Lebedev-194)
Angular grid pruning method      GridPruning ... 4 (adaptive)
Weight generation scheme         WeightScheme... mBecke (2022)
Basis function cutoff            BFCut       ... 1.0000e-11
Integration weight cutoff        WCut        ... 1.0000e-14
Partially contracted basis set               ... on
Rotationally invariant grid construction     ... off
Angular grids for H and He will be reduced by one unit

Total number of grid points                  ...   168069
Total number of batches                      ...     1339
Average number of points per batch           ...      125
Average number of grid points per atom       ...     2898
UseSFitting                                  ... on
Initializing property integral containers    ... done (  0.0 sec)

SHARK setup successfully completed in   4.4 seconds

Maximum memory used throughout the entire STARTUP-calculation: 134.7 MB


           ************************************************************
           *        Program running with 25 parallel MPI-processes    *
           *              working on a common directory               *
           ************************************************************
-------------------------------------------------------------------------------
                                 ORCA GUESS
                   Start orbitals & Density for SCF / CASSCF
-------------------------------------------------------------------------------

------------
SCF SETTINGS
------------
Hamiltonian:
 Density Functional     Method          .... DFT(GTOs)
 Exchange Functional    Exchange        .... B88
   X-Alpha parameter    XAlpha          ....  0.666667
   Becke's b parameter  XBeta           ....  0.004200
 Correlation Functional Correlation     .... LYP
 LDA part of GGA corr.  LDAOpt          .... VWN-5
 Gradients option       PostSCFGGA      .... off
 Hybrid DFT is turned on
   Fraction HF Exchange ScalHFX         ....  0.200000
   Scaling of DF-GGA-X  ScalDFX         ....  0.720000
   Scaling of DF-GGA-C  ScalDFC         ....  0.810000
   Scaling of DF-LDA-C  ScalLDAC        ....  1.000000
   Perturbative correction              ....  0.000000
   NL short-range parameter             ....  4.800000
 RI-approximation to the Coulomb term is turned on
   Number of AuxJ basis functions       .... 1930
   RIJ-COSX (HFX calculated with COS-X)).... on


General Settings:
 Integral files         IntName         .... honokiol2-opt_FEC2
 Hartree-Fock type      HFTyp           .... RHF
 Total Charge           Charge          ....    0
 Multiplicity           Mult            ....    1
 Number of Electrons    NEL             ....  250
 Basis Dimension        Dim             .... 1198
 Nuclear Repulsion      ENuc            ....   3701.3855069681 Eh

Convergence Acceleration:
 AO-DIIS                CNVDIIS         .... on
   Start iteration      DIISMaxIt       ....    12
   Startup error        DIISStart       ....  0.200000
   # of expansion vecs  DIISMaxEq       ....     5
   Bias factor          DIISBfac        ....   1.050
   Max. coefficient     DIISMaxC        ....  10.000
 MO-DIIS                CNVKDIIS        .... off
 Trust-Rad. Augm. Hess. CNVTRAH         .... auto
   Auto Start mean grad. ratio tolernc. ....  1.125000
   Auto Start start iteration           ....    50
   Auto Start num. interpolation iter.  ....    10
   Max. Number of Micro iterations      ....    24
   Max. Number of Macro iterations      .... Maxiter - #DIIS iter
   Number of Davidson start vectors     ....     2
   Converg. threshold    (grad. norm)   ....   1.000e-05
   Grad. Scal. Fac. for Micro threshold ....   0.100
   Minimum threshold for Micro iter.    ....   1.000e-02
   NR start threshold (gradient norm)   ....   1.000e-04
   Initial trust radius                 ....   0.400
   Minimum AH scaling param. (alpha)    ....   1.000
   Maximum AH scaling param. (alpha)    .... 1000.000
   Quad. conv. algorithm                .... NR
   White noise on init. David. guess    .... on
   Maximum white noise                  ....   0.010
   Pseudo random numbers                .... off
   Inactive MOs                         .... canonical
   Orbital update algorithm             .... Taylor
   Preconditioner                       .... Diag
   Full preconditioner red. dimension   ....   250
 SOSCF                  CNVSOSCF        .... on
   Start iteration      SOSCFMaxIt      ....   150
   Startup grad/error   SOSCFStart      ....  0.003300
   Hessian update       SOSCFHessUp     .... L-BFGS
 Level Shifting         CNVShift        .... on
   Level shift para.    LevelShift      ....    0.2500
   Turn off err/grad.   ShiftErr        ....    0.0010
 Zerner damping         CNVZerner       .... off
 Static damping         CNVDamp         .... on
   Fraction old density DampFac         ....    0.7000
   Max. Damping (<1)    DampMax         ....    0.9800
   Min. Damping (>=0)   DampMin         ....    0.0000
   Turn off err/grad.   DampErr         ....    0.1000

SCF Procedure:
 Maximum # iterations   MaxIter         ....   125
 SCF integral mode      SCFMode         .... Direct
   Integral package                     .... SHARK and LIBINT hybrid scheme
 Reset frequency        DirectResetFreq ....    20
 Integral Threshold     Thresh          ....  2.500e-11 Eh
 Primitive CutOff       TCut            ....  2.500e-12 Eh

Convergence Tolerance:
 Convergence Check Mode ConvCheckMode   .... Total+1el-Energy
 Convergence forced     ConvForced      .... 0
 Energy Change          TolE            ....  1.000e-08 Eh
 1-El. energy change                    ....  1.000e-05 Eh
 Orbital Gradient       TolG            ....  1.000e-05
[...]
  34 H     1.0000    0     1.008  -11.421607   -4.349232   -2.288633
  35 H     1.0000    0     1.008  -11.622899   -1.306030   -0.593786
  36 H     1.0000    0     1.008    4.298487   -2.620975   -9.892657
  37 H     1.0000    0     1.008    5.780692   -4.849182   -7.654006
  38 H     1.0000    0     1.008   -9.491654    1.854946    6.693880
  39 H     1.0000    0     1.008   -6.798027   -1.184557    8.816741
  40 O     8.0000    0    15.999   -3.984871    1.496200    9.211564
  41 C     6.0000    0    12.011   -6.572368    0.741352    9.509056
  42 C     6.0000    0    12.011   -8.006011    2.636465    7.879025
  43 C     6.0000    0    12.011   -3.784622    3.116380    7.265539
  44 O     8.0000    0    15.999   -1.865526    3.931299    6.430401
  45 O     8.0000    0    15.999   -6.126874    3.702127    6.345403
  46 F     9.0000    0    18.998   -9.062970    4.508469    9.345311
  47 H     1.0000    0     1.008   -7.094954    0.884860   11.491414
  48 H     1.0000    0     1.008    1.880732   11.335942   -1.986941
  49 H     1.0000    0     1.008    3.638287    8.446463   -2.149217
  50 C     6.0000    0    12.011    1.765442    9.283871   -1.960515
  51 F     9.0000    0    18.998   -0.980878   10.233418    1.493084
  52 C     6.0000    0    12.011    0.376049    8.316000    0.376350
  53 H     1.0000    0     1.008    1.547553    7.426483    1.811518
  54 O     8.0000    0    15.999    0.211032    8.447548   -4.019088
  55 O     8.0000    0    15.999   -1.317711    6.525534   -0.604162
  56 C     6.0000    0    12.011   -1.492630    6.751968   -3.172637
  57 O     8.0000    0    15.999   -2.922647    5.582352   -4.447076

--------------------------------
INTERNAL COORDINATES (ANGSTROEM)
--------------------------------
 O      0   0   0     0.000000000000     0.00000000     0.00000000
 O      1   0   0     6.297980085465     0.00000000     0.00000000
 C      1   2   0     2.443544438798    63.83160320     0.00000000
 C      3   1   2     1.489514177058    94.10924086     0.07519312
 C      2   1   3     2.431676820425    44.71686853   316.69936068
 C      5   2   1     1.393031011557   146.40318894    30.77202308
 C      3   1   2     2.449608257451   117.15637557   179.73838875
 C      7   3   1     1.393765311091    28.63232481   182.09272021
 C      1   2   3     1.361868056474    92.31032827   358.95816793
 C      4   3   1     1.396431398578   121.27081675   290.44581729
 C      2   1   3     1.374817303616    25.48933672   356.81296423
 C      5   2   1     1.515695971882    92.93002372   214.56785237
 C      7   3   1     1.517511117645   149.51201765   180.11145466
 C      7   3   1     1.393890908537    88.98568187     1.88125156
 C     10   4   3     1.387405432149   120.68681325   180.66423669
 C     14   7   3     1.387455400154   121.07649212   359.44512099
 C     12   5   2     1.506031335126   113.83532036   299.99227122
 C     13   7   3     1.503710744588   113.64415834    59.33288615
 C     17  12   5     1.330643690906   125.23026806   124.96147774
 C     18  13   7     1.327589678950   125.15281659   237.02921465
 H      6   5   2     1.083073396795   118.35009172   183.01901212
 H      8   7   3     1.084239734991   119.15934090   180.58365181
 H     10   4   3     1.083122185128   119.80187509   359.76946229
 H     12   5   2     1.095592103280   109.95300532    63.03856154
 H     12   5   2     1.093096917729   107.99708136   178.55917927
 H     13   7   3     1.094776943053   110.11668341   296.62528168
 H     13   7   3     1.095201516067   108.27850395   180.61443983
 H     14   7   3     1.084391510800   119.72575092   179.28171843
 H     15  10   4     1.082550417141   120.77701224   178.56312017
 H     16  14   7     1.083010511389   120.97681602   180.22167471
 H     17  12   5     1.087235187518   115.65985158   305.23564784
 H     18  13   7     1.087420356352   115.64078812    56.65827361
 H      1   2   3     0.971032398638    21.70472191   164.66921669
 H      2   1   3     0.969850827407   126.73442700   302.82991760
 H     19  17  12     1.082736609886   121.62475875   179.40483707
 H     19  17  12     1.085634199923   121.60237676     1.16439966
 H     20  18  13     1.082896207315   121.63225262   180.22621234
 H     20  18  13     1.084973696365   121.57892681     0.04140513
 H      2   1   3     3.238760629157    85.65646232   204.43686633
 H     39   2   1     2.425037391020    57.06648649   282.91472241
 O     40  39   2     2.066922475365    90.85654822   109.63304772
 C     40  39   2     1.089558584096    66.40819222   143.49587781
 C     39   2   1     1.087388326613   105.07545069   327.08571543
 C     41  40  39     1.344161876360   114.65216286   324.28540164
 O     44  41  40     1.188527391386   125.70852103   217.76648652
 O     44  41  40     1.367275225661   110.24075196    37.37878138
 F     43  39   2     1.377036298052   107.75368344   185.84336313
 H     42  40  39     1.087511687055   111.21019315   117.60308946
 H     30  16  14     5.209657518885    90.02660242   102.83244479
 H     49  30  16     1.791749304658    30.21098211   321.49521197
 C     49  30  16     1.087711619321    48.24726327    10.39638471
 F     51  49  30     2.388416922799    80.44080444    93.02762521
 C     52  51  49     1.376353258930    36.76691305   195.72145373
 H     53  52  51     1.087503158096   108.46030037   128.07050609
 O     51  49  30     1.434973365818   109.28653991   198.10546114
 O     53  52  51     1.403666407872   108.85611440   246.86171209
 C     55  51  49     1.348512858327   109.65010158   227.98517158
 O     57  55  51     1.187663493679   125.73971591   185.71340568

---------------------------
INTERNAL COORDINATES (A.U.)
---------------------------
 O      0   0   0     0.000000000000     0.00000000     0.00000000
 O      1   0   0    11.901457558420     0.00000000     0.00000000
 C      1   2   0     4.617629785395    63.83160320     0.00000000
 C      3   1   2     2.814773867233    94.10924086     0.07519312
 C      2   1   3     4.595203236807    44.71686853   316.69936068
 C      5   2   1     2.632447107902   146.40318894    30.77202308
 C      3   1   2     4.629088741974   117.15637557   179.73838875
 C      7   3   1     2.633834732922    28.63232481   182.09272021
 C      1   2   3     2.573557657272    92.31032827   358.95816793
 C      4   3   1     2.638872908121   121.27081675   290.44581729
 C      2   1   3     2.598028188011    25.48933672   356.81296423
 C      5   2   1     2.864250289144    92.93002372   214.56785237
 C      7   3   1     2.867680417530   149.51201765   180.11145466
 C      7   3   1     2.634072077697    88.98568187     1.88125156
 C     10   4   3     2.621816303477   120.68681325   180.66423669
 C     14   7   3     2.621910729321   121.07649212   359.44512099
 C     12   5   2     2.845986772491   113.83532036   299.99227122
 C     13   7   3     2.841601491906   113.64415834    59.33288615
 C     17  12   5     2.514552157642   125.23026806   124.96147774
 C     18  13   7     2.508780911436   125.15281659   237.02921465
 H      6   5   2     2.046712102879   118.35009172   183.01901212
 H      8   7   3     2.048916162648   119.15934090   180.58365181
 H     10   4   3     2.046804299466   119.80187509   359.76946229
 H     12   5   2     2.070369029686   109.95300532    63.03856154
 H     12   5   2     2.065653812341   107.99708136   178.55917927
 H     13   7   3     2.068828600102   110.11668341   296.62528168
 H     13   7   3     2.069630926823   108.27850395   180.61443983
 H     14   7   3     2.049202977361   119.72575092   179.28171843
 H     15  10   4     2.045723814558   120.77701224   178.56312017
 H     16  14   7     2.046593266683   120.97681602   180.22167471
 H     17  12   5     2.054576747571   115.65985158   305.23564784
 H     18  13   7     2.054926665956   115.64078812    56.65827361
 H      1   2   3     1.834985300591    21.70472191   164.66921669
 H      2   1   3     1.832752454556   126.73442700   302.82991760
 H     19  17  12     2.046075667855   121.62475875   179.40483707
 H     19  17  12     2.051551319473   121.60237676     1.16439966
 H     20  18  13     2.046377263287   121.63225262   180.22621234
 H     20  18  13     2.050303148638   121.57892681     0.04140513
 H      2   1   3     6.120370602433    85.65646232   204.43686633
 H     39   2   1     4.582656533547    57.06648649   282.91472241
 O     40  39   2     3.905917418487    90.85654822   109.63304772
 C     40  39   2     2.058967330804    66.40819222   143.49587781
 C     39   2   1     2.054866138521   105.07545069   327.08571543
 C     41  40  39     2.540097825978   114.65216286   324.28540164
 O     44  41  40     2.245991272384   125.70852103   217.76648652
 O     44  41  40     2.583775726194   110.24075196    37.37878138
 F     43  39   2     2.602221479786   107.75368344   185.84336313
 H     42  40  39     2.055099255973   111.21019315   117.60308946
 H     30  16  14     9.844825962216    90.02660242   102.83244479
 H     49  30  16     3.385915486447    30.21098211   321.49521197
 C     49  30  16     2.055477073200    48.24726327    10.39638471
 F     51  49  30     4.513453877713    80.44080444    93.02762521
 C     52  51  49     2.600930722908    36.76691305   195.72145373
 H     53  52  51     2.055083138577   108.46030037   128.07050609
 O     51  49  30     2.711706670868   109.28653991   198.10546114
 O     53  52  51     2.652545094263   108.85611440   246.86171209
 C     55  51  49     2.548319990310   109.65010158   227.98517158
 O     57  55  51     2.244358742309   125.73971591   185.71340568



           ************************************************************
           *        Program running with 25 parallel MPI-processes    *
           *              working on a common directory               *
           ************************************************************
------------------------------------------------------------------------------
                   ___                                                        
                  /   \      - P O W E R E D   B Y -                         
                 /     \                                                     
                 |  |  |   _    _      __       _____    __    __             
                 |  |  |  | |  | |    /  \     |  _  \  |  |  /  |          
                  \  \/   | |  | |   /    \    | | | |  |  | /  /          
                 / \  \   | |__| |  /  /\  \   | |_| |  |  |/  /          
                |  |  |   |  __  | /  /__\  \  |    /   |      \           
                |  |  |   | |  | | |   __   |  |    \   |  |\   \          
                \     /   | |  | | |  |  |  |  | |\  \  |  | \   \       
                 \___/    |_|  |_| |__|  |__|  |_| \__\ |__|  \__/        
                                                                              
                      - O R C A' S   B I G   F R I E N D -                    
                                      &                                       
                       - I N T E G R A L  F E E D E R -                       
                                                                              
 v1 FN, 2020, v2 2021, v3 2022-2024                                           
------------------------------------------------------------------------------


----------------------
SHARK INTEGRAL PACKAGE
----------------------

Number of atoms                             ...     58
Number of basis functions                   ...   1198
Number of shells                            ...    470
Maximum angular momentum                    ...      3
Integral batch strategy                     ... SHARK/LIBINT Hybrid
RI-J (if used) integral strategy            ... SPLIT-RIJ (Revised 2003 algorithm where possible)
Printlevel                                  ...      1
Contraction scheme used                     ... SEGMENTED contraction
Prescreening option                         ... SCHWARTZ
   Thresh                                   ... 2.500e-11
   Tcut                                     ... 2.500e-12
   Tpresel                                  ... 2.500e-12 
Coulomb Range Separation                    ... NOT USED
Exchange Range Separation                   ... NOT USED
Multipole approximations                    ... NOT USED
Finite Nucleus Model                        ... NOT USED
CABS basis                                  ... NOT available
Auxiliary Coulomb fitting basis             ... AVAILABLE
   # of basis functions in Aux-J            ...   1930
   # of shells in Aux-J                     ...    630
   Maximum angular momentum in Aux-J        ...      4
Auxiliary J/K fitting basis                 ... NOT available
Auxiliary Correlation fitting basis         ... NOT available
Auxiliary 'external' fitting basis          ... NOT available

Checking pre-screening integrals            ... done (  0.0 sec) Dimension = 470
Check shell pair data                       ... done (  0.0 sec)
Shell pair information
Shell pair cut-off parameter TPreSel        ...   2.5e-12
Total number of shell pairs                 ...    110685
Shell pairs after pre-screening             ...     64415
Total number of primitive shell pairs       ...    340720
Primitive shell pairs kept                  ...    124344
          la=0 lb=0:  16706 shell pairs
          la=1 lb=0:  19057 shell pairs
          la=1 lb=1:   5453 shell pairs
          la=2 lb=0:   8882 shell pairs
          la=2 lb=1:   5221 shell pairs
          la=2 lb=2:   1238 shell pairs
          la=3 lb=0:   4067 shell pairs
          la=3 lb=1:   2474 shell pairs
          la=3 lb=2:   1066 shell pairs
          la=3 lb=3:    251 shell pairs

Calculating one electron integrals          ... done (  0.1 sec)
Calculating RI/J V-Matrix + Cholesky decomp.... done (  0.2 sec)
Calculating Nuclear repulsion               ... done (  0.0 sec) ENN=   3702.830144895811 Eh

Diagonalization of the overlap matrix:
Smallest eigenvalue                        ... 5.045e-06
Time for diagonalization                   ...    0.248 sec
Threshold for overlap eigenvalues          ... 1.000e-07
Number of eigenvalues below threshold      ... 0
Time for construction of square roots      ...    0.110 sec
Total time needed                          ...    0.369 sec

-------------------
DFT GRID GENERATION
-------------------

General Integration Accuracy     IntAcc      ... 4.388
Radial Grid Type                 RadialGrid  ... OptM3 with GC (2021)
Angular Grid (max. ang.)         AngularGrid ... 4 (Lebedev-302)
Angular grid pruning method      GridPruning ... 4 (adaptive)
Weight generation scheme         WeightScheme... mBecke (2022)
Basis function cutoff            BFCut       ... 1.0000e-11
Integration weight cutoff        WCut        ... 1.0000e-14
Partially contracted basis set               ... off
Rotationally invariant grid construction     ... off
Angular grids for H and He will be reduced by one unit

Total number of grid points                  ...   279687
Total number of batches                      ...     4401
Average number of points per batch           ...       63
Average number of grid points per atom       ...     4822

--------------------
COSX GRID GENERATION
--------------------

GRIDX 1
-------
General Integration Accuracy     IntAcc      ... 3.816
Radial Grid Type                 RadialGrid  ... OptM3 with GC (2021)
Angular Grid (max. ang.)         AngularGrid ... 1 (Lebedev-50)
Angular grid pruning method      GridPruning ... 4 (adaptive)
Weight generation scheme         WeightScheme... mBecke (2022)
Basis function cutoff            BFCut       ... 1.0000e-11
Integration weight cutoff        WCut        ... 1.0000e-14
Partially contracted basis set               ... on
Rotationally invariant grid construction     ... off
Angular grids for H and He will be reduced by one unit

Total number of grid points                  ...    35379
Total number of batches                      ...      312
Average number of points per batch           ...      113
Average number of grid points per atom       ...      610
UseSFitting                                  ... on

GRIDX 2
-------
General Integration Accuracy     IntAcc      ... 4.020
Radial Grid Type                 RadialGrid  ... OptM3 with GC (2021)
Angular Grid (max. ang.)         AngularGrid ... 2 (Lebedev-110)
Angular grid pruning method      GridPruning ... 4 (adaptive)
Weight generation scheme         WeightScheme... mBecke (2022)
Basis function cutoff            BFCut       ... 1.0000e-11
Integration weight cutoff        WCut        ... 1.0000e-14
Partially contracted basis set               ... on
Rotationally invariant grid construction     ... off
Angular grids for H and He will be reduced by one unit

Total number of grid points                  ...    76907
Total number of batches                      ...      632
Average number of points per batch           ...      121
Average number of grid points per atom       ...     1326
UseSFitting                                  ... on

GRIDX 3
-------
General Integration Accuracy     IntAcc      ... 4.338
Radial Grid Type                 RadialGrid  ... OptM3 with GC (2021)
Angular Grid (max. ang.)         AngularGrid ... 3 (Lebedev-194)
Angular grid pruning method      GridPruning ... 4 (adaptive)
Weight generation scheme         WeightScheme... mBecke (2022)
Basis function cutoff            BFCut       ... 1.0000e-11
Integration weight cutoff        WCut        ... 1.0000e-14
Partially contracted basis set               ... on
Rotationally invariant grid construction     ... off
Angular grids for H and He will be reduced by one unit

Total number of grid points                  ...   168056
Total number of batches                      ...     1339
Average number of points per batch           ...      125
Average number of grid points per atom       ...     2898
UseSFitting                                  ... on
Initializing property integral containers    ... done (  0.0 sec)

SHARK setup successfully completed in   4.5 seconds

Maximum memory used throughout the entire STARTUP-calculation: 145.5 MB


           ************************************************************
           *        Program running with 25 parallel MPI-processes    *
           *              working on a common directory               *
           ************************************************************
Occupation numbers will be reassigned to an Aufbau configuration
             **** ENERGY FILE WAS UPDATED (honokiol2-opt_FEC2.en.tmp) ****
Finished Guess after   2.0 sec
Maximum memory used throughout the entire GUESS-calculation: 144.3 MB


           ************************************************************
           *        Program running with 25 parallel MPI-processes    *
           *              working on a common directory               *
           ************************************************************
----------------------------------------D-I-I-S--------------------------------------------
Iteration    Energy (Eh)           Delta-E    RMSDP     MaxDP     DIISErr   Damp  Time(sec)
-------------------------------------------------------------------------------------------
               ***  Starting incremental Fock matrix formation  ***
                              *** Initializing SOSCF ***
---------------------------------------S-O-S-C-F--------------------------------------
Iteration    Energy (Eh)           Delta-E    RMSDP     MaxDP     MaxGrad    Time(sec)
--------------------------------------------------------------------------------------
    1    -1730.2451895546137166     0.00e+00  8.64e-05  1.33e-02  8.78e-05     8.3
               *** Restarting incremental Fock matrix formation ***
    2    -1730.2452237461302502    -3.42e-05  1.67e-05  1.90e-03  1.16e-04     7.5
    3    -1730.2452268335500776    -3.09e-06  5.28e-06  4.78e-04  3.48e-05     4.4
