
                                 *****************
                                 * O   R   C   A *
                                 *****************

                                            #,                                       
                                            ###                                      
                                            ####                                     
                                            #####                                    
                                            ######                                   
                                           ########,                                 
                                     ,,################,,,,,                         
                               ,,#################################,,                 
                          ,,##########################################,,             
                       ,#########################################, ''#####,          
                    ,#############################################,,   '####,        
                  ,##################################################,,,,####,       
                ,###########''''           ''''###############################       
              ,#####''   ,,,,##########,,,,          '''####'''          '####       
            ,##' ,,,,###########################,,,                        '##       
           ' ,,###''''                  '''############,,,                           
         ,,##''                                '''############,,,,        ,,,,,,###''
      ,#''                                            '''#######################'''  
     '                                                          ''''####''''         
             ,#######,   #######,   ,#######,      ##                                
            ,#'     '#,  ##    ##  ,#'     '#,    #''#        ,####,   ,####,        
            ##       ##  ##   ,#'  ##            #'  '#       #'       #'  '#        
            ##       ##  #######   ##           ,######,      #####,   #    #        
            '#,     ,#'  ##    ##  '#,     ,#' ,#      #,     #,   #   #,  ,#        
             '#######'   ##     ##  '#######'  #'      '#     '####' # '####'        



                #########################################################
                #                        -***-                          #
                #          Department of theory and spectroscopy        #
                #                                                       #
                #                      Frank Neese                      #
                #                                                       #
                #     Directorship, Architecture, Infrastructure        #
                #                    SHARK, DRIVERS                     #
                #        Core code/Algorithms in most modules           #
                #                                                       #
                #        Max Planck Institute fuer Kohlenforschung      #
                #                Kaiser Wilhelm Platz 1                 #
                #                 D-45470 Muelheim/Ruhr                 #
                #                      Germany                          #
                #                                                       #
                #                  All rights reserved                  #
                #                        -***-                          #
                #########################################################


                         Program Version 6.0.1  -  RELEASE   -


 With contributions from (in alphabetic order):
[Max-Planck-Institut fuer Kohlenforschung]                               
  Daniel Aravena         : Magnetic Suceptibility                        
  Michael Atanasov       : Ab Initio Ligand Field Theory (pilot matlab implementation)
  Alexander A. Auer      : GIAO ZORA, VPT2 properties, NMR spectrum      
  Ute Becker             : All parallelization in ORCA, NUMFREQ, NUMCALC 
  Giovanni Bistoni       : ED, misc. LED, open-shell LED, HFLD           
  Martin Brehm           : Molecular dynamics                            
  Dmytro Bykov           : pre 5.0 version of the SCF Hessian            
  Marcos Casanova-Páez   : Triplet and SCS-CIS(D). UHF-(DLPNO)-IP/EA/STEOM-CCSD. UHF-CVS-IP/STEOM-CCSD   
  Vijay G. Chilkuri      : MRCI spin determinant printing, contributions to CSF-ICE 
  Pauline Colinet        : FMM embedding                                 
  Dipayan Datta          : RHF DLPNO-CCSD density                        
  Achintya Kumar Dutta   : EOM-CC, STEOM-CC                              
  Nicolas Foglia         : Exact transition moments, OPA infrastructure, MCD improvements    
  Dmitry Ganyushin       : Spin-Orbit,Spin-Spin,Magnetic field MRCI      
  Miquel Garcia-Rates    : C-PCM and meta-GGA Hessian, CCSD/C-PCM, Gaussian charge scheme 
  Tiago L. C. Gouveia    : GS-ROHF, GS-ROCIS                             
  Yang Guo               : DLPNO-NEVPT2, F12-NEVPT2, CIM, IAO-localization        
  Andreas Hansen         : Spin unrestricted coupled pair/coupled cluster methods 
  Ingolf Harden          : AUTO-CI MPn and infrastructure                
  Benjamin Helmich-Paris : MC-RPA, TRAH-(SCF,CASSCF), AVAS, COSX integrals, SCF dyn. polar. 
  Lee Huntington         : MR-EOM, pCC                                   
  Robert Izsak           : Overlap fitted RIJCOSX, COSX-SCS-MP3, EOM     
  Riya Kayal             : Wick's Theorem for AUTO-CI, AUTO-CI UHF-CCSDT 
  Emily Kempfer          : AUTO-CI, RHF CISDT and CCSDT                  
  Christian Kollmar      : KDIIS, OOCD, Brueckner-CCSD(T), CCSD density, CASPT2, CASPT2-K, improved NEVPT2 
  Axel Koslowski         : Symmetry handling                             
  Simone Kossmann        : meta-GGA functionals, TD-DFT gradient, OOMP2, (MP2 Hessian; deprecated post 5.0) 
  Lucas Lang             : DCDCAS                                        
  Marvin Lechner         : AUTO-CI (C++ implementation), FIC-MRCC        
  Spencer Leger          : CASSCF response                               
  Dagmar Lenk            : GEPOL surface, SMD, ORCA-2-JSON               
  Dimitrios Liakos       : Extrapolation schemes; Compound Job, initial MDCI parallelization 
  Dimitrios Manganas     : Further ROCIS development; embedding schemes. LFT, Crystal Embedding 
  Dimitrios Pantazis     : SARC Basis sets                               
  Anastasios Papadopoulos: AUTO-CI, single reference methods and gradients 
  Taras Petrenko         : pre 6.0 DFT Hessian and TD-DFT gradient, (ASA, deprecated), ECA, 1-Electron XAS/XES, NRVS 
  Peter Pinski           : DLPNO-MP2, DLPNO-MP2 Gradient                 
  Christoph Reimann      : Effective Core Potentials                     
  Marius Retegan         : Local ZFS, SOC                                
  Christoph Riplinger    : Optimizer, TS searches, QM/MM, DLPNO-CCSD(T), (RO)-DLPNO pert. Triples 
  Michael Roemelt        : Original ROCIS implementation                 
  Masaaki Saitow         : Open-shell DLPNO-CCSD energy and density      
  Barbara Sandhoefer     : DKH picture change effects                    
  Kantharuban Sivalingam : CASSCF convergence/infrastructure, NEVPT2 and variants, FIC-MRCI 
  Bernardo de Souza      : ESD, SOC TD-DFT                               
  Georgi L. Stoychev     : AutoAux, RI-MP2 NMR, DLPNO-MP2 response, X2C  
  Van Anh Tran           : RI-MP2 g-tensors                              
  Willem Van den Heuvel  : Paramagnetic NMR                              
  Zikuan Wang            : NOTCH, Electric field optimization            
  Frank Wennmohs         : Technical directorship and infrastructure     
  Hang Xu                : AUTO-CI-Response properties                   
                                                                         
[FACCTs GmbH]                                                            
  Markus Bursch, Miquel Garcia-Rates, Christoph Riplinger, Bernardo de Souza, Georgi L. Stoychev 
                                                                 
  APM, Basis sets (HGBS, AHGBS, def-TZVP (Ac-Lr), def2-XVPD (La-Lu)), CI-OPT, improved COSX, DLPNO-Multilevel,           
  DOCKER, DRACO, updates on ESD, GOAT, IRC, LR-CPCM, MBIS, meta-GGA TD-DFT gradient, ML-optimized integration grids, 
  MM, NACMEs, nearIR, NEB, NEB-TS, NL-DFT gradient (VV10), 2- and 3-layer-ONIOM, interface openCOSMO-RS, QMMM,   
  Crystal-QMMM, SF, symmetry and pop. for TD-DFT, r2SCAN hybrids, SOLVATOR                                   
                                                                         
[Other institutions]                                                     
  V. Asgeirsson          : NEB                                           
  Christoph Bannwarth    : sTDA-DFT, sTD-DFT, PBEh-3c, B97-3c, D3        
  Sebastian Ehlert       : rSCAN, r2SCAN, r2SCAN-3c, D4, dhf basis sets  
  Marvin Friede          : D4 for Fr, Ra, Ac-Lr                          
  Lars Goerigk           : TD-DFT with DH, B97 family of functionals     
  Stefan Grimme          : VdW corrections, initial TS optimization, DFT functionals, gCP, sTDA/sTD-DF 
  Waldemar Hujo          : DFT-NL                                        
  H. Jonsson             : NEB                                           
  Holger Kruse           : gCP                                           
  Marcel Mueller         : wB97X-3c, vDZP basis set                      
  Hagen Neugebauer       : wr2SCAN                                       
  Tobias Risthaus        : range-separated hybrid DFT                    
  Lukas Wittmann         : regularized MP2, r2SCAN double-hybrids, wr2SCAN        
                                                                         
We gratefully acknowledge several colleagues who have allowed us to      
interface, adapt or use parts of their codes:                            
  Ed Valeev, F. Pavosevic, A. Kumar             : LibInt (2-el integral package), F12 methods 
  Garnet Chan, S. Sharma, J. Yang, R. Olivares  : DMRG                   
  Ulf Ekstrom                                   : XCFun DFT Library      
  Mihaly Kallay                                 : mrcc  (arbitrary order and MRCC methods)
  Frank Weinhold                                : gennbo (NPA and NBO analysis)           
  Simon Mueller                                 : openCOSMO-RS                            
  Christopher J. Cramer and Donald G. Truhlar   : smd solvation model                     
  S Lehtola, MJT Oliveira, MAL Marques          : LibXC Library                           
  Liviu Ungur et al                             : ANISO software                          


 Your calculation uses the libint2 library for the computation of 2-el integrals
 For citations please refer to: http://libint.valeyev.net

 Your ORCA version has been built with support for libXC version: 6.2.2
 For citations please refer to: https://libxc.gitlab.io

 This ORCA versions uses:
   CBLAS   interface :  Fast vector & matrix operations
   LAPACKE interface :  Fast linear algebra routines
   SCALAPACK package :  Parallel linear algebra routines
   Shared memory     :  Shared parallel matrices
   BLAS/LAPACK       :  OpenBLAS 0.3.27  USE64BITINT DYNAMIC_ARCH NO_AFFINITY SkylakeX SINGLE_THREADED
        Core in use  :  SkylakeX
   Copyright (c) 2011-2014, The OpenBLAS Project


NOTE: MaxCore=5000 MB was set to SCF,MP2,MDCI,CIPSI,MRCI and CIS
      => If you want to overwrite this, your respective input block should be placed after the MaxCore statement
Your calculation utilizes the atom-pairwise dispersion correction
with the Becke-Johnson damping scheme (D3BJ)


Warning: RI is on but no J-basis has been assigned. Assigning Def2/J (nothing to worry about!)
================================================================================

----- Orbital basis set information -----
Your calculation utilizes the basis: def2-TZVP
   F. Weigend and R. Ahlrichs, Phys. Chem. Chem. Phys. 7, 3297 (2005).

----- AuxJ basis set information -----
Your calculation utilizes the auxiliary basis: def2/J
   F. Weigend, Phys. Chem. Chem. Phys. 8, 1057 (2006).

================================================================================
                                        WARNINGS
                       Please study these warnings very carefully!
================================================================================


WARNING: Geometry Optimization
  ===> : Switching off AutoStart
         For restart on a previous wavefunction, please use MOREAD

================================================================================
                                       INPUT FILE
================================================================================
NAME = honokiol3_FEC2.inp
|  1> ! OPT B3LYP def2-TZVP TightSCF D3BJ RIJCOSX
|  2> 
|  3> %maxcore 5000
|  4> 
|  5> %pal
|  6> nprocs 25
|  7> end
|  8> 
|  9> * xyz 0 1
| 10> O           1.95284935867922      1.17731310654300      2.74848183437749
| 11>   O          -3.63627099320915     -1.85399156182872      2.15022873657765
| 12>   C           1.44235515580065      0.10465179235079      0.61268825401206
| 13>   C           0.11320465018837     -0.39967691600451      1.02429921964839
| 14>   C          -2.23571639153736     -0.78580654629664      0.48038590897253
| 15>   C          -0.97182552608199     -0.31440586258643      0.15076626278088
| 16>   C           3.13334523011462      0.28726027754548     -1.14926979252510
| 17>   C           1.88926326213862     -0.12652796608999     -0.69115054141661
| 18>   C           2.29120661261983      0.81647481168229      1.48036865782982
| 19>   C          -0.09679283149515     -1.00996709854688      2.26360735191454
| 20>   C          -2.41058713782409     -1.39822132751997      1.72613950602327
| 21>   C          -3.39324733731922     -0.60209338095948     -0.47400822708292
| 22>   C           3.56716260394627      0.00556370863103     -2.57244305016263
| 23>   C           3.97107045307560      0.94488793810559     -0.25154555688197
| 24>   C          -1.34288074366023     -1.51016514564202      2.60782857104775
| 25>   C           3.55565619890672      1.20479301216407      1.04470872313926
| 26>   C          -4.00897532319623     -1.90338127466987     -0.90434626591191
| 27>   C           2.48194970600579      0.25336179470892     -3.57786689390172
| 28>   C          -5.28498268895078     -2.23580911988676     -0.73074657081531
| 29>   C           1.99885451684605     -0.66044647253424     -4.40940818302475
| 30>   H          -0.84934018780441      0.15616445915065     -0.81502043375905
| 31>   H           1.23745017080149     -0.66122617020540     -1.36952266566203
| 32>   H           0.72446778386811     -1.11433615653995      2.95920093167412
| 33>   H          -4.16601511857956      0.02480672870421     -0.01556725653668
| 34>   H          -3.02711955982656     -0.05660957390086     -1.34619021644367
| 35>   H           3.91429429035317     -1.02921085935941     -2.66075140870657
| 36>   H           4.42796303702633      0.64220448500686     -2.80121932444294
| 37>   H           4.95346315090947      1.27132937124890     -0.57198813493987
| 38>   H          -1.49767544001850     -2.00489860951761      3.55778709707278
| 39>   H           4.18754031498793      1.74435617724723      1.73799210476497
| 40>   H          -3.33106259598629     -2.61408635730000     -1.36883482140281
| 41>   H           2.06391658920224      1.25561402270784     -3.58573246074322
| 42>   H           0.99043867521224      1.24128039128456      2.86014348867613
| 43>   H          -4.17735661579702     -2.09329012592185      1.38123549782539
| 44>   H          -5.67233177094036     -3.19310276806645     -1.05463889508933
| 45>   H          -5.99396587231848     -1.54724832571268     -0.28168653522597
| 46>   H           1.20687370740842     -0.42547785920579     -5.10907715014445
| 47>   H           2.37856413781809     -1.67676392187972     -4.41885178349386
| 48>   H          -4.48947465293643      0.76770678833839      2.33782726857662
| 49>   H          -3.50631290452784     -0.38503432454836      4.21081440048485
| 50>   O          -2.14890874995584      1.15056374332018      4.47468477881986
| 51>   C          -3.50279297512468      0.69646359242567      4.32358527059556
| 52>   C          -3.97097704434673      1.39911425119510      3.05377034838012
| 53>   C          -1.75828365867393      1.77818424897146      3.35918692089157
| 54>   O          -0.65826815080865      2.19319931505318      3.15269919940591
| 55>   O          -2.78544905236081      1.88495640693498      2.47841226778305
| 56>   F          -4.78558005109557      2.46585242685973      3.35118375367986
| 57>   H          -4.08315869265099      1.00616347295710      5.18912848702970
| 58>   H           1.85906546883912      4.83799840823615     -0.66080737176322
| 59>   H           2.28429544851340      3.22238010071194     -0.00349296020267
| 60>   C           1.50753317794856      3.82785513611798     -0.46638351447373
| 61>   F          -0.38609557620644      5.06135440623285      0.30687214272699
| 62>   C           0.22100333751292      3.82176704333288      0.34993060282366
| 63>   H           0.31079203634862      3.52999765239202      1.39184158234240
| 64>   O           1.11616710655746      3.22152682832046     -1.70794597630156
| 65>   O          -0.59523623404638      2.90249584566690     -0.32301335077587
| 66>   C          -0.08420658530813      2.63761753415344     -1.56233920173501
| 67>   O          -0.63114052994149      1.96394636462175     -2.37671724071175
| 68> *
| 69> 
| 70>                          ****END OF INPUT****
================================================================================

                       *****************************
                       * Geometry Optimization Run *
                       *****************************

Geometry optimization settings:
Update method            Update   .... BFGS
Choice of coordinates    CoordSys .... (2022) Redundant Internals
Initial Hessian          InHess   .... Almloef's Model
Max. no of cycles        MaxIter  .... 174

Convergence Tolerances:
Energy Change            TolE     ....  5.0000e-06 Eh
Max. Gradient            TolMAXG  ....  3.0000e-04 Eh/bohr
RMS Gradient             TolRMSG  ....  1.0000e-04 Eh/bohr
Max. Displacement        TolMAXD  ....  4.0000e-03 bohr
RMS Displacement         TolRMSD  ....  2.0000e-03 bohr
Strict Convergence                .... False

------------------------------------------------------------------------------
                        ORCA OPTIMIZATION COORDINATE SETUP
------------------------------------------------------------------------------

The optimization will be done in redundant internal coordinates (2022)
Making redundant internal coordinates   ...  (2022 redundants) done
Evaluating the initial hessian          ...  (Almloef) done
Evaluating the coordinates              ...  done
Calculating the B-matrix                .... done
Calculating the G-matrix                .... done
Diagonalizing the G-matrix              .... done
Small eigenvalue found = 9.521e-03
Small eigenvalue found = 1.243e-02
Small eigenvalue found = 1.818e-02
Small eigenvalue found = 2.638e-02
The first mode is                       ....  285
The number of degrees of freedom        ....  168

    -----------------------------------------------------------------
                    Redundant Internal Coordinates


    -----------------------------------------------------------------
         Definition                    Initial Value    Approx d2E/dq
    -----------------------------------------------------------------
      1. B(C   3,C   2)                  1.4800         0.448893   
      2. B(C   5,C   4)                  1.3886         0.627953   
      3. B(C   5,C   3)                  1.3956         0.612137   
      4. B(C   7,C   6)                  1.3888         0.627500   
      5. B(C   7,C   2)                  1.3976         0.607689   
      6. B(C   8,O   0)                  1.3612         0.622102   
      7. B(C   8,C   2)                  1.4072         0.586617   
      8. B(C   9,C   3)                  1.3973         0.608271   
      9. B(C  10,C   4)                  1.3991         0.604213   
     10. B(C  10,O   1)                  1.3747         0.591888   
     11. B(C  11,C   4)                  1.5115         0.399912   
     12. B(C  12,C   6)                  1.5143         0.395818   
     13. B(C  13,C   6)                  1.3929         0.618179   
     14. B(C  14,C   9)                  1.3862         0.633688   
     15. B(C  14,C  10)                  1.3892         0.626613   
     16. B(C  15,C  13)                  1.3858         0.634551   
     17. B(C  15,C   8)                  1.3926         0.618785   
     18. B(C  16,C  11)                  1.5026         0.413209   
     19. B(C  17,C  12)                  1.5000         0.417117   
     20. B(C  18,C  16)                  1.3300         0.778934   
     21. B(C  19,C  17)                  1.3266         0.788637   
     22. B(H  20,C   5)                  1.0813         0.371812   
     23. B(H  21,C   7)                  1.0821         0.370697   
     24. B(H  22,C   9)                  1.0813         0.371793   
     25. B(H  23,C  11)                  1.0956         0.352766   
     26. B(H  24,C  11)                  1.0919         0.357560   
     27. B(H  25,C  12)                  1.0950         0.353527   
     28. B(H  26,C  12)                  1.0948         0.353782   
     29. B(H  27,C  13)                  1.0837         0.368571   
     30. B(H  28,C  14)                  1.0822         0.370576   
     31. B(H  29,C  15)                  1.0821         0.370636   
     32. B(H  30,C  16)                  1.0865         0.364800   
     33. B(H  31,C  17)                  1.0860         0.365476   
     34. B(H  32,O   0)                  0.9710         0.499408   
     35. B(H  33,O   1)                  0.9703         0.500739   
     36. B(H  34,C  18)                  1.0823         0.370442   
     37. B(H  35,C  18)                  1.0856         0.366029   
     38. B(H  36,C  19)                  1.0826         0.370050   
     39. B(H  37,C  19)                  1.0850         0.366810   
     40. B(H  38,H  23)                  2.4890         0.000404   
     41. B(C  41,O  40)                  1.4360         0.472624   
     42. B(C  41,H  39)                  1.0874         0.363600   
     43. B(C  42,C  41)                  1.5249         0.380629   
     44. B(C  42,H  38)                  1.0863         0.365002   
     45. B(C  43,O  40)                  1.3382         0.676843   
     46. B(O  44,H  32)                  1.9261         0.014948   
     47. B(O  44,C  43)                  1.1937         1.150978   
     48. B(O  45,C  43)                  1.3573         0.631050   
     49. B(O  45,C  42)                  1.4045         0.530613   
     50. B(F  46,C  42)                  1.3748         0.549898   
     51. B(H  47,C  41)                  1.0872         0.363885   
     52. B(H  49,H  29)                  2.9732         0.000068   
     53. B(H  49,C  13)                  2.8449         0.000571   
     54. B(H  49,C   8)                  2.8267         0.000610   
     55. B(H  49,C  15)                  2.6049         0.001379   
     56. B(C  50,H  49)                  1.0882         0.362460   
     57. B(C  50,H  48)                  1.0871         0.363970   
     58. B(C  52,F  51)                  1.3809         0.537550   
     59. B(C  52,C  50)                  1.5237         0.382366   
     60. B(H  53,O  44)                  2.4139         0.002491   
     61. B(H  53,C  52)                  1.0857         0.365818   
     62. B(H  53,F  51)                  2.0020         0.010512   
     63. B(H  53,H  32)                  2.8029         0.000128   
     64. B(O  54,C  50)                  1.4361         0.472480   
     65. B(O  54,H  31)                  2.8791         0.000451   
     66. B(O  55,C  52)                  1.4015         0.536478   
     67. B(O  55,H  53)                  2.0385         0.009893   
     68. B(O  55,H  20)                  2.8016         0.000600   
     69. B(C  56,O  55)                  1.3665         0.610121   
     70. B(C  56,O  54)                  1.3428         0.665607   
     71. B(C  56,H  20)                  2.7021         0.000965   
     72. B(O  57,H  20)                  2.3989         0.002632   
     73. B(O  57,C  56)                  1.1900         1.166563   
     74. B(O  57,H  31)                  3.0376         0.000252   
     75. A(C   8,O   0,H  32)          111.7764         0.367776   
     76. A(C  10,O   1,H  33)          109.5411         0.364818   
     77. A(C   7,C   2,C   8)          117.7777         0.428227   
     78. A(C   3,C   2,C   8)          122.8632         0.405751   
     79. A(C   3,C   2,C   7)          119.3590         0.408291   
     80. A(C   5,C   3,C   9)          117.7102         0.431587   
     81. A(C   2,C   3,C   5)          120.2207         0.408819   
     82. A(C   2,C   3,C   9)          122.0373         0.408361   
     83. A(C   5,C   4,C  10)          118.2749         0.433049   
     84. A(C   5,C   4,C  11)          120.3910         0.402368   
     85. A(C  10,C   4,C  11)          121.3127         0.399646   
     86. A(C   4,C   5,H  20)          117.5714         0.355596   
     87. A(C   3,C   5,H  20)          119.8408         0.354061   
     88. A(C   3,C   5,C   4)          122.5694         0.434065   
     89. A(C  12,C   6,C  13)          121.4169         0.400531   
     90. A(C   7,C   6,C  13)          117.8278         0.434776   
     91. A(C   7,C   6,C  12)          120.7455         0.401588   
     92. A(C   2,C   7,C   6)          123.0183         0.433439   
     93. A(C   2,C   7,H  21)          118.2928         0.353444   
     94. A(C   6,C   7,H  21)          118.6861         0.355371   
     95. A(O   0,C   8,C   2)          123.9595         0.427225   
     96. A(C   2,C   8,C  15)          119.7269         0.429619   
     97. A(O   0,C   8,H  49)          105.2372         0.150810   
     98. A(C  15,C   8,H  49)           66.4639         0.151248   
     99. A(O   0,C   8,C  15)          116.3097         0.431337   
    100. A(C   2,C   8,H  49)           96.0495         0.150500   
    101. A(C  14,C   9,H  22)          119.2215         0.356142   
    102. A(C   3,C   9,H  22)          119.9054         0.353678   
    103. A(C   3,C   9,C  14)          120.8613         0.434280   
    104. A(O   1,C  10,C  14)          117.5641         0.428465   
    105. A(O   1,C  10,C   4)          122.0884         0.425680   
    106. A(C   4,C  10,C  14)          120.2856         0.432882   
    107. A(C  16,C  11,H  24)          109.9550         0.329366   
    108. A(C   4,C  11,H  24)          107.9567         0.327593   
    109. A(C  16,C  11,H  23)          109.0478         0.328633   
    110. A(C   4,C  11,H  23)          110.2126         0.326865   
    111. A(C   4,C  11,C  16)          112.9180         0.374046   
    112. A(H  23,C  11,H  24)          106.5519         0.289580   
    113. A(C   6,C  12,C  17)          113.0770         0.373990   
    114. A(H  25,C  12,H  26)          106.4639         0.289196   
    115. A(C  17,C  12,H  26)          109.4331         0.329300   
    116. A(C   6,C  12,H  26)          108.2684         0.326466   
    117. A(C  17,C  12,H  25)          109.3542         0.329261   
    118. A(C   6,C  12,H  25)          110.0238         0.326427   
    119. A(H  27,C  13,H  49)          108.7912         0.136159   
    120. A(C  15,C  13,H  49)           65.8308         0.150661   
    121. A(C   6,C  13,C  15)          120.7386         0.435652   
    122. A(C  15,C  13,H  27)          119.4624         0.355698   
    123. A(C   6,C  13,H  27)          119.7925         0.354125   
    124. A(C   6,C  13,H  49)           94.4486         0.150297   
    125. A(C   9,C  14,H  28)          120.7662         0.355944   
    126. A(C   9,C  14,C  10)          120.2800         0.436609   
    127. A(C  10,C  14,H  28)          118.9484         0.355266   
    128. A(C   8,C  15,H  49)           84.1866         0.163852   
    129. A(H  29,C  15,H  49)           99.0094         0.146648   
    130. A(C   8,C  15,H  29)          117.9553         0.354519   
    131. A(C   8,C  15,C  13)          120.8306         0.435729   
    132. A(C  13,C  15,H  49)           85.1340         0.164280   
    133. A(C  13,C  15,H  29)          121.1807         0.356036   
    134. A(C  18,C  16,H  30)          119.4024         0.367715   
    135. A(C  11,C  16,H  30)          115.6755         0.330459   
    136. A(C  11,C  16,C  18)          124.9069         0.420473   
    137. A(C  12,C  17,C  19)          124.7373         0.422112   
    138. A(C  19,C  17,H  31)          119.4071         0.368614   
    139. A(C  12,C  17,H  31)          115.8373         0.331075   
    140. A(C  16,C  18,H  35)          121.4704         0.367928   
    141. A(C  16,C  18,H  34)          121.6947         0.368685   
    142. A(H  34,C  18,H  35)          116.8135         0.292889   
    143. A(H  36,C  19,H  37)          116.9821         0.292939   
    144. A(C  17,C  19,H  36)          121.4672         0.369403   
    145. A(C  17,C  19,H  37)          121.5507         0.368845   
    146. A(O  55,H  20,C  56)           28.6784         0.101270   
    147. A(O  55,H  20,O  57)           50.7540         0.104221   
    148. A(C   5,H  20,O  55)          106.2617         0.136223   
    149. A(C  56,H  20,O  57)           26.1224         0.106151   
    150. A(C   5,H  20,C  56)          132.7462         0.142211   
    151. A(C   5,H  20,O  57)          156.8878         0.155006   
    152. A(C  11,H  23,H  38)          131.1548         0.123529   
    153. A(C  15,H  29,H  49)           59.9221         0.112345   
    154. A(C  17,H  31,O  57)          123.6328         0.127660   
    155. A(C  17,H  31,O  54)          138.7797         0.133105   
    156. A(O  54,H  31,O  57)           44.6925         0.097391   
    157. A(O  44,H  32,H  53)           57.8900         0.101853   
    158. A(O   0,H  32,H  53)          103.5265         0.117439   
    159. A(O   0,H  32,O  44)          153.9543         0.192325   
    160. A(H  23,H  38,C  42)          137.2743         0.123796   
    161. A(C  41,O  40,C  43)          109.6218         0.414588   
    162. A(H  39,C  41,O  40)          109.1770         0.335682   
    163. A(C  42,C  41,H  47)          111.5803         0.325877   
    164. A(O  40,C  41,H  47)          109.2360         0.335725   
    165. A(H  39,C  41,H  47)          111.3569         0.291761   
    166. A(O  40,C  41,C  42)          103.3783         0.377188   
    167. A(H  39,C  41,C  42)          111.7736         0.325835   
    168. A(C  41,C  42,O  45)          103.9671         0.384836   
    169. A(O  45,C  42,F  46)          108.6857         0.406099   
    170. A(C  41,C  42,F  46)          111.0583         0.385571   
    171. A(H  38,C  42,F  46)          108.1055         0.343079   
    172. A(H  38,C  42,O  45)          109.5096         0.342449   
    173. A(H  38,C  42,C  41)          115.3105         0.326042   
    174. A(O  40,C  43,O  45)          110.9107         0.436604   
    175. A(O  44,C  43,O  45)          123.9027         0.480988   
    176. A(O  40,C  43,O  44)          125.1866         0.487253   
    177. A(H  32,O  44,H  53)           79.5873         0.120129   
    178. A(C  43,O  44,H  53)          133.5256         0.185538   
    179. A(H  32,O  44,C  43)          130.0341         0.233818   
    180. A(C  42,O  45,C  43)          110.2276         0.417972   
    181. A(C   8,H  49,C  50)          134.3147         0.136699   
    182. A(C  15,H  49,C  50)          161.8911         0.146358   
    183. A(C  13,H  49,H  29)           43.4114         0.094391   
    184. A(C   8,H  49,H  29)           42.9321         0.094473   
    185. A(C  15,H  49,H  29)           21.0684         0.095581   
    186. A(H  29,H  49,C  50)          169.3183         0.112228   
    187. A(C   8,H  49,C  13)           50.4281         0.100070   
    188. A(C  13,H  49,C  15)           29.0353         0.102311   
    189. A(C  13,H  49,C  50)          146.2564         0.135981   
    190. A(C   8,H  49,C  15)           29.3495         0.102515   
    191. A(C  52,C  50,O  54)          103.3792         0.377465   
    192. A(H  49,C  50,O  54)          109.1088         0.335489   
    193. A(H  48,C  50,O  54)          109.0160         0.335721   
    194. A(H  49,C  50,C  52)          111.8751         0.325911   
    195. A(H  48,C  50,C  52)          111.8744         0.326134   
    196. A(H  48,C  50,H  49)          111.2393         0.291628   
    197. A(H  53,C  52,O  55)          109.4320         0.343209   
    198. A(F  51,C  52,O  55)          108.5281         0.405259   
    199. A(C  50,C  52,O  55)          103.7176         0.385879   
    200. A(F  51,C  52,H  53)          107.9091         0.341904   
    201. A(C  50,C  52,H  53)          116.4481         0.326406   
    202. A(C  50,C  52,F  51)          110.5432         0.384355   
    203. A(H  32,H  53,O  44)           42.5227         0.097568   
    204. A(H  32,H  53,C  52)          137.9206         0.115817   
    205. A(O  44,H  53,C  52)          144.6540         0.153949   
    206. A(C  50,O  54,C  56)          109.4799         0.413334   
    207. A(H  31,O  54,C  56)           93.9032         0.146925   
    208. A(H  31,O  54,C  50)          139.6823         0.142602   
    209. A(H  20,O  55,C  56)           71.6166         0.149575   
    210. A(H  20,O  55,C  52)          141.2730         0.147837   
    211. A(C  52,O  55,C  56)          110.1711         0.416283   
    212. A(H  20,C  56,O  57)           62.5653         0.168040   
    213. A(H  20,C  56,O  55)           79.7049         0.157255   
    214. A(H  20,C  56,O  54)          133.0360         0.158613   
    215. A(O  55,C  56,O  57)          123.9529         0.479193   
    216. A(O  54,C  56,O  57)          125.6488         0.486957   
    217. A(O  54,C  56,O  55)          110.3878         0.432656   
    218. A(H  20,O  57,C  56)           91.3123         0.187047   
    219. A(H  20,O  57,H  31)           99.4443         0.101509   
    220. A(H  31,O  57,C  56)           89.8060         0.146650   
    221. D(C   9,C   3,C   2,C   8)    -42.7167         0.013737   
    222. D(C   5,C   3,C   2,C   8)    139.3809         0.013737   
    223. D(C   5,C   3,C   2,C   7)    -40.5783         0.013737   
    224. D(C   9,C   3,C   2,C   7)    137.3242         0.013737   
    225. D(H  20,C   5,C   3,C   2)     -2.3593         0.025890   
    226. D(H  20,C   5,C   4,C  10)    179.9530         0.027329   
    227. D(H  20,C   5,C   4,C  11)     -1.7093         0.027329   
    228. D(C   3,C   5,C   4,C  11)    176.7252         0.027329   
    229. D(C   3,C   5,C   4,C  10)     -1.6126         0.027329   
    230. D(C   4,C   5,C   3,C   9)      1.2490         0.025890   
    231. D(C   4,C   5,C   3,C   2)    179.2406         0.025890   
    232. D(H  20,C   5,C   3,C   9)    179.6492         0.025890   
    233. D(H  21,C   7,C   2,C   3)      0.7907         0.025493   
    234. D(H  21,C   7,C   2,C   8)   -179.1705         0.025493   
    235. D(C   6,C   7,C   2,C   8)      1.4430         0.025493   
    236. D(H  21,C   7,C   6,C  13)   -178.4466         0.027287   
    237. D(C   2,C   7,C   6,C  12)    179.8171         0.027287   
    238. D(C   2,C   7,C   6,C  13)      0.9376         0.027287   
    239. D(H  21,C   7,C   6,C  12)      0.4329         0.027287   
    240. D(C   6,C   7,C   2,C   3)   -178.5958         0.025493   
    241. D(H  49,C   8,C   2,C   3)   -116.8024         0.025704   
    242. D(C  15,C   8,C   2,C   3)    176.8948         0.025704   
    243. D(O   0,C   8,C   2,C   7)    176.1125         0.025704   
    244. D(O   0,C   8,C   2,C   3)     -3.8472         0.025704   
    245. D(C  15,C   8,C   2,C   7)     -3.1454         0.025704   
    246. D(C  15,C   8,O   0,H  32)    154.7851         0.031355   
    247. D(C   2,C   8,O   0,H  32)    -24.4961         0.031355   
    248. D(H  49,C   8,O   0,H  32)     83.8732         0.031355   
    249. D(H  22,C   9,C   3,C   2)      0.7209         0.025545   
    250. D(C  14,C   9,C   3,C   5)     -0.0656         0.025545   
    251. D(C  14,C   9,C   3,C   2)   -178.0184         0.025545   
    252. D(H  22,C   9,C   3,C   5)    178.6737         0.025545   
    253. D(C  14,C  10,C   4,C   5)      0.7952         0.025187   
    254. D(O   1,C  10,C   4,C  11)     -0.4589         0.025187   
    255. D(C  14,C  10,C   4,C  11)   -177.5265         0.025187   
    256. D(O   1,C  10,C   4,C   5)    177.8628         0.025187   
    257. D(C  14,C  10,O   1,H  33)   -154.9710         0.025542   
    258. D(C   4,C  10,O   1,H  33)     27.8853         0.025542   
    259. D(H  24,C  11,C   4,C   5)     -1.3753         0.011869   
    260. D(H  23,C  11,C   4,C  10)     60.9065         0.011869   
    261. D(C  16,C  11,C   4,C  10)    -61.3181         0.011869   
    262. D(C  16,C  11,C   4,C   5)    120.3955         0.011869   
    263. D(H  23,C  11,C   4,C   5)   -117.3800         0.011869   
    264. D(H  26,C  12,C   6,C   7)    164.4447         0.011639   
    265. D(H  25,C  12,C   6,C  13)     99.2574         0.011639   
    266. D(H  25,C  12,C   6,C   7)    -79.5814         0.011639   
    267. D(C  17,C  12,C   6,C  13)   -138.1484         0.011639   
    268. D(C  17,C  12,C   6,C   7)     43.0127         0.011639   
    269. D(H  27,C  13,C   6,C  12)      0.4183         0.028724   
    270. D(H  27,C  13,C   6,C   7)    179.2899         0.028724   
    271. D(C  15,C  13,C   6,C  12)    179.4890         0.028724   
    272. D(C  15,C  13,C   6,C   7)     -1.6395         0.028724   
    273. D(H  49,C  13,C   6,C   7)    -66.0746         0.028724   
    274. D(H  28,C  14,C  10,C   4)   -178.8257         0.027205   
    275. D(H  28,C  14,C  10,O   1)      3.9767         0.027205   
    276. D(C   9,C  14,C  10,C   4)      0.3295         0.027205   
    277. D(H  28,C  14,C   9,H  22)     -0.3109         0.027863   
    278. D(H  28,C  14,C   9,C   3)    178.4369         0.027863   
    279. D(C  10,C  14,C   9,H  22)   -179.4506         0.027863   
    280. D(C  10,C  14,C   9,C   3)     -0.7027         0.027863   
    281. D(C   9,C  14,C  10,O   1)   -176.8681         0.027205   
    282. D(C  13,C  15,C   8,C   2)      2.5296         0.030942   
    283. D(C  13,C  15,C   8,O   0)   -176.7838         0.030942   
    284. D(H  29,C  15,C  13,C   6)   -177.9267         0.032656   
    285. D(H  29,C  15,C  13,H  49)    -97.5957         0.032656   
    286. D(H  29,C  15,C  13,H  27)      1.1470         0.032656   
    287. D(C   8,C  15,C  13,H  49)     80.2590         0.032656   
    288. D(C   8,C  15,C  13,H  27)    179.0017         0.032656   
    289. D(C   8,C  15,C  13,C   6)     -0.0720         0.032656   
    290. D(H  29,C  15,C   8,H  49)     97.1327         0.030942   
    291. D(H  29,C  15,C   8,C   2)   -179.5483         0.030942   
    292. D(H  29,C  15,C   8,O   0)      1.1383         0.030942   
    293. D(C  13,C  15,C   8,H  49)    -80.7895         0.030942   
    294. D(C  18,C  16,C  11,H  24)   -117.4656         0.012639   
    295. D(C  18,C  16,C  11,C   4)    121.8969         0.012639   
    296. D(C  18,C  16,C  11,H  23)     -0.9786         0.012639   
    297. D(H  30,C  16,C  11,H  23)   -179.5445         0.012639   
    298. D(H  30,C  16,C  11,C   4)    -56.6690         0.012639   
    299. D(H  31,C  17,C  12,H  25)   -179.6239         0.012871   
    300. D(H  31,C  17,C  12,C   6)     57.4098         0.012871   
    301. D(C  19,C  17,C  12,H  26)    118.2090         0.012871   
    302. D(C  19,C  17,C  12,H  25)      1.9481         0.012871   
    303. D(C  19,C  17,C  12,C   6)   -121.0181         0.012871   
    304. D(H  35,C  18,C  16,H  30)   -179.2341         0.043598   
    305. D(H  35,C  18,C  16,C  11)      2.2495         0.043598   
    306. D(H  34,C  18,C  16,H  30)     -0.9687         0.043598   
    307. D(H  34,C  18,C  16,C  11)   -179.4851         0.043598   
    308. D(H  36,C  19,C  17,H  31)      1.0427         0.044807   
    309. D(H  36,C  19,C  17,C  12)    179.4185         0.044807   
    310. D(H  37,C  19,C  17,C  12)     -0.5350         0.044807   
    311. D(H  37,C  19,C  17,H  31)   -178.9108         0.044807   
    312. D(O  55,H  20,C   5,C   3)    -71.8145         0.143259   
    313. D(C  56,H  20,C   5,C   4)    119.5410         0.143259   
    314. D(C  56,H  20,C   5,C   3)    -58.9381         0.143259   
    315. D(O  57,H  20,C   5,C   4)    101.1759         0.143259   
    316. D(O  57,H  20,C   5,C   3)    -77.3031         0.143259   
    317. D(H  38,H  23,C  11,H  24)   -129.8251         0.115542   
    318. D(H  38,H  23,C  11,C  16)    111.5371         0.115542   
    319. D(H  38,H  23,C  11,C   4)    -12.9431         0.115542   
    320. D(H  49,H  29,C  15,C   8)    -88.1688         0.130322   
    321. D(H  49,H  29,C  15,C  13)     89.7457         0.130322   
    322. D(O  57,H  31,C  17,C  19)     75.2282         0.125936   
    323. D(O  57,H  31,C  17,C  12)   -103.2889         0.125936   
    324. D(O  54,H  31,C  17,C  19)    132.7909         0.125936   
    325. D(O  54,H  31,C  17,C  12)    -45.7262         0.125936   
    326. D(H  53,H  32,O   0,C   8)    -70.7230         0.311612   
    327. D(O  44,H  32,O   0,C   8)   -111.8838         0.311612   
    328. D(C  42,H  38,H  23,C  11)     65.5128         0.001501   
    329. D(H  47,C  41,O  40,C  43)   -130.3017         0.017611   
    330. D(C  42,C  41,O  40,C  43)    -11.3934         0.017611   
    331. D(H  39,C  41,O  40,C  43)    107.7112         0.017611   
    332. D(O  45,C  42,C  41,H  47)    130.7830         0.011545   
    333. D(O  45,C  42,C  41,H  39)   -103.7872         0.011545   
    334. D(H  38,C  42,C  41,H  47)   -109.3288         0.011545   
    335. D(H  38,C  42,C  41,O  40)    133.3971         0.011545   
    336. D(F  46,C  42,H  38,H  23)    116.2142         0.125538   
    337. D(O  45,C  42,H  38,H  23)     -2.0436         0.125538   
    338. D(O  45,C  42,C  41,O  40)     13.5089         0.011545   
    339. D(C  41,C  42,H  38,H  23)   -118.8398         0.125538   
    340. D(H  38,C  42,C  41,H  39)     16.1009         0.011545   
    341. D(O  45,C  43,O  40,C  41)      4.8264         0.034093   
    342. D(O  44,C  43,O  40,C  41)   -175.1570         0.034093   
    343. D(H  32,O  44,C  43,O  45)   -111.1510         0.125904   
    344. D(H  32,O  44,C  43,O  40)     68.8303         0.125904   
    345. D(H  53,O  44,H  32,O   0)     49.0678         0.001630   
    346. D(C  43,O  44,H  32,H  53)    139.4759         0.001630   
    347. D(C  43,O  44,H  32,O   0)   -171.4563         0.001630   
    348. D(H  53,O  44,C  43,O  45)      7.0386         0.125904   
    349. D(H  53,O  44,C  43,O  40)   -172.9802         0.125904   
    350. D(C  42,O  45,C  43,O  44)   -175.2647         0.029293   
    351. D(C  42,O  45,C  43,O  40)      4.7517         0.029293   
    352. D(C  43,O  45,C  42,F  46)    106.8939         0.022361   
    353. D(C  43,O  45,C  42,C  41)    -11.4644         0.022361   
    354. D(C  43,O  45,C  42,H  38)   -135.2100         0.022361   
    355. D(C  13,H  49,H  29,C  15)    -37.3291         0.001500   
    356. D(C   8,H  49,H  29,C  15)     39.6863         0.001500   
    357. D(C  50,H  49,H  29,C  15)    120.1686         0.001500   
    358. D(C  13,H  49,C  15,C   8)   -121.7142         0.001501   
    359. D(C   8,H  49,C  15,H  29)   -117.4484         0.001501   
    360. D(C   8,H  49,C  15,C  13)    121.7142         0.001501   
    361. D(C  50,H  49,C  15,C  13)     90.1969         0.001501   
    362. D(C  50,H  49,C  15,C   8)    -31.5173         0.001501   
    363. D(C   8,H  49,C  13,C  15)    -32.7457         0.001500   
    364. D(C   8,H  49,C  13,C   6)     89.0580         0.001500   
    365. D(C  15,H  49,C  13,H  27)   -114.6306         0.001500   
    366. D(C  15,H  49,C  13,C   6)    121.8037         0.001500   
    367. D(C  50,H  49,C  13,H  27)     99.3948         0.001500   
    368. D(C  50,H  49,C  13,C  15)   -145.9746         0.001500   
    369. D(C  50,H  49,C  13,C   6)    -24.1709         0.001500   
    370. D(C  50,H  49,C  15,H  29)   -148.9656         0.001501   
    371. D(C  13,H  49,C   8,C   2)    -87.4634         0.001500   
    372. D(C  13,H  49,C   8,O   0)    144.8697         0.001500   
    373. D(C  15,H  49,C   8,C   2)   -119.8500         0.001500   
    374. D(C  13,H  49,C  15,H  29)    120.8374         0.001501   
    375. D(C  15,H  49,C   8,O   0)    112.4832         0.001500   
    376. D(C  50,H  49,C   8,C  15)    166.8743         0.001500   
    377. D(C  50,H  49,C   8,C   2)     47.0243         0.001500   
    378. D(C  50,H  49,C   8,O   0)    -80.6426         0.001500   
    379. D(C  52,C  50,H  49,C  13)    117.0375         0.155116   
    380. D(C  52,C  50,H  49,C   8)     35.1574         0.155116   
    381. D(C  52,C  50,H  49,C  15)     56.1406         0.155116   
    382. D(H  48,C  50,H  49,H  29)     91.2283         0.155116   
    383. D(H  48,C  50,H  49,C  13)   -117.0334         0.155116   
    384. D(H  48,C  50,H  49,C   8)    161.0865         0.155116   
    385. D(H  48,C  50,H  49,C  15)   -177.9303         0.155116   
    386. D(H  53,C  52,C  50,O  54)    136.8706         0.011645   
    387. D(H  53,C  52,C  50,H  49)     19.6062         0.011645   
    388. D(H  53,C  52,C  50,H  48)   -105.9745         0.011645   
    389. D(F  51,C  52,C  50,O  54)    -99.5429         0.011645   
    390. D(F  51,C  52,C  50,H  49)    143.1926         0.011645   
    391. D(F  51,C  52,C  50,H  48)     17.6120         0.011645   
    392. D(H  32,H  53,C  52,F  51)    169.8347         0.158653   
    393. D(H  32,H  53,C  52,C  50)    -65.2300         0.158653   
    394. D(O  44,H  53,C  52,O  55)    -18.2351         0.158653   
    395. D(O  44,H  53,C  52,F  51)     99.6780         0.158653   
    396. D(O  44,H  53,C  52,C  50)   -135.3867         0.158653   
    397. D(H  32,H  53,O  44,C  43)   -136.6742         0.001504   
    398. D(C  52,H  53,O  44,H  32)    111.1466         0.001504   
    399. D(C  52,H  53,O  44,C  43)    -25.5276         0.001504   
    400. D(O  44,H  53,H  32,O   0)   -160.0507         0.001500   
    401. D(C  52,H  53,H  32,O  44)   -126.3787         0.001500   
    402. D(H  32,H  53,C  52,O  55)     51.9216         0.158653   
    403. D(C  52,H  53,H  32,O   0)     73.5706         0.001500   
    404. D(H  31,O  54,C  50,H  49)    -16.2128         0.019078   
    405. D(H  31,O  54,C  50,H  48)    105.4501         0.019078   
    406. D(C  56,O  54,C  50,C  52)    -13.5040         0.019078   
    407. D(C  56,O  54,C  50,H  49)    105.6865         0.019078   
    408. D(C  56,O  54,C  50,H  48)   -132.6506         0.019078   
    409. D(C  56,O  54,H  31,O  57)     11.9293         0.001500   
    410. D(C  56,O  54,H  31,C  17)    -80.4388         0.001500   
    411. D(C  50,O  54,H  31,O  57)    138.5845         0.001500   
    412. D(C  50,O  54,H  31,C  17)     46.2165         0.001500   
    413. D(H  20,O  55,C  52,F  51)   -171.5054         0.026691   
    414. D(H  20,O  55,C  52,C  50)     70.9286         0.026691   
    415. D(C  56,O  55,C  52,H  53)   -139.4518         0.026691   
    416. D(C  56,O  55,C  52,F  51)    103.0229         0.026691   
    417. D(C  56,O  55,C  52,C  50)    -14.5431         0.026691   
    418. D(C  56,O  55,H  20,O  57)    -22.7179         0.001500   
    419. D(C  56,O  55,H  20,C   5)    160.0609         0.001500   
    420. D(C  52,O  55,H  20,C  56)    -99.5787         0.001500   
    421. D(C  52,O  55,H  20,O  57)   -122.2966         0.001500   
    422. D(H  20,O  55,C  52,H  53)    -53.9801         0.026691   
    423. D(C  52,O  55,H  20,C   5)     60.4822         0.001500   
    424. D(O  57,C  56,O  55,H  20)     46.6201         0.035159   
    425. D(O  57,C  56,O  55,C  52)   -174.4663         0.035159   
    426. D(O  54,C  56,O  55,H  20)   -132.2582         0.035159   
    427. D(H  20,C  56,O  54,C  50)    -89.8512         0.039506   
    428. D(O  57,C  56,O  54,H  31)    -27.1707         0.039506   
    429. D(O  57,C  56,O  54,C  50)   -173.7634         0.039506   
    430. D(O  55,C  56,O  54,H  31)    151.6842         0.039506   
    431. D(O  55,C  56,O  54,C  50)      5.0916         0.039506   
    432. D(O  57,C  56,H  20,C   5)   -163.6864         0.001501   
    433. D(O  55,C  56,H  20,O  57)    137.2121         0.001501   
    434. D(O  54,C  56,O  55,C  52)      6.6554         0.035159   
    435. D(O  55,C  56,H  20,C   5)    -26.4742         0.001501   
    436. D(O  54,C  56,H  20,O  55)    108.3500         0.001501   
    437. D(O  54,C  56,H  20,O  57)   -114.4379         0.001501   
    438. D(H  20,C  56,O  55,C  52)    138.9136         0.035159   
    439. D(O  54,C  56,H  20,C   5)     81.8757         0.001501   
    440. D(H  31,O  57,C  56,H  20)    -99.4423         0.141747   
    441. D(H  31,O  57,C  56,O  55)   -153.1231         0.141747   
    442. D(H  20,O  57,C  56,O  55)    -53.6807         0.141747   
    443. D(H  20,O  57,C  56,O  54)    125.0253         0.141747   
    444. D(H  20,O  57,H  31,O  54)   -104.7539         0.001500   
    445. D(H  20,O  57,H  31,C  17)     22.9891         0.001500   
    446. D(C  56,O  57,H  31,O  54)    -13.4558         0.001500   
    447. D(C  56,O  57,H  31,C  17)    114.2872         0.001500   
    448. D(H  31,O  57,H  20,O  55)    114.9150         0.001505   
    449. D(H  31,O  57,H  20,C  56)     90.0216         0.001505   
    450. D(H  31,O  57,C  56,O  54)     25.5830         0.141747   
    451. D(H  31,O  57,H  20,C   5)    121.7243         0.001505   
    452. D(C  56,O  57,H  20,O  55)     24.8934         0.001505   
    453. D(C  56,O  57,H  20,C   5)     31.7026         0.001505   
    -----------------------------------------------------------------

Number of atoms                         .... 58
Number of degrees of freedom            .... 453


         *************************************************************
         *                GEOMETRY OPTIMIZATION CYCLE   1            *
         *************************************************************
---------------------------------
CARTESIAN COORDINATES (ANGSTROEM)
---------------------------------
  O      1.952849    1.177313    2.748482
  O     -3.636271   -1.853992    2.150229
  C      1.442355    0.104652    0.612688
  C      0.113205   -0.399677    1.024299
  C     -2.235716   -0.785807    0.480386
  C     -0.971826   -0.314406    0.150766
  C      3.133345    0.287260   -1.149270
  C      1.889263   -0.126528   -0.691151
  C      2.291207    0.816475    1.480369
  C     -0.096793   -1.009967    2.263607
  C     -2.410587   -1.398221    1.726140
  C     -3.393247   -0.602093   -0.474008
  C      3.567163    0.005564   -2.572443
  C      3.971070    0.944888   -0.251546
  C     -1.342881   -1.510165    2.607829
  C      3.555656    1.204793    1.044709
  C     -4.008975   -1.903381   -0.904346
  C      2.481950    0.253362   -3.577867
  C     -5.284983   -2.235809   -0.730747
  C      1.998855   -0.660446   -4.409408
  H     -0.849340    0.156164   -0.815020
  H      1.237450   -0.661226   -1.369523
  H      0.724468   -1.114336    2.959201
  H     -4.166015    0.024807   -0.015567
  H     -3.027120   -0.056610   -1.346190
  H      3.914294   -1.029211   -2.660751
  H      4.427963    0.642204   -2.801219
  H      4.953463    1.271329   -0.571988
  H     -1.497675   -2.004899    3.557787
  H      4.187540    1.744356    1.737992
  H     -3.331063   -2.614086   -1.368835
  H      2.063917    1.255614   -3.585732
  H      0.990439    1.241280    2.860143
  H     -4.177357   -2.093290    1.381235
  H     -5.672332   -3.193103   -1.054639
  H     -5.993966   -1.547248   -0.281687
  H      1.206874   -0.425478   -5.109077
  H      2.378564   -1.676764   -4.418852
  H     -4.489475    0.767707    2.337827
  H     -3.506313   -0.385034    4.210814
  O     -2.148909    1.150564    4.474685
  C     -3.502793    0.696464    4.323585
  C     -3.970977    1.399114    3.053770
  C     -1.758284    1.778184    3.359187
  O     -0.658268    2.193199    3.152699
  O     -2.785449    1.884956    2.478412
  F     -4.785580    2.465852    3.351184
  H     -4.083159    1.006163    5.189128
  H      1.859065    4.837998   -0.660807
  H      2.284295    3.222380   -0.003493
  C      1.507533    3.827855   -0.466384
  F     -0.386096    5.061354    0.306872
  C      0.221003    3.821767    0.349931
  H      0.310792    3.529998    1.391842
  O      1.116167    3.221527   -1.707946
  O     -0.595236    2.902496   -0.323013
  C     -0.084207    2.637618   -1.562339
  O     -0.631141    1.963946   -2.376717

----------------------------
CARTESIAN COORDINATES (A.U.)
----------------------------
  NO LB      ZA    FRAG     MASS         X           Y           Z
   0 O     8.0000    0    15.999    3.690350    2.224799    5.193878
   1 O     8.0000    0    15.999   -6.871556   -3.503536    4.063343
   2 C     6.0000    0    12.011    2.725656    0.197763    1.157813
   3 C     6.0000    0    12.011    0.213926   -0.755280    1.935645
   4 C     6.0000    0    12.011   -4.224892   -1.484959    0.907798
   5 C     6.0000    0    12.011   -1.836484   -0.594141    0.284907
   6 C     6.0000    0    12.011    5.921164    0.542843   -2.171805
   7 C     6.0000    0    12.011    3.570190   -0.239103   -1.306085
   8 C     6.0000    0    12.011    4.329753    1.542914    2.797491
   9 C     6.0000    0    12.011   -0.182912   -1.908561    4.277598
  10 C     6.0000    0    12.011   -4.555350   -2.642255    3.261931
  11 C     6.0000    0    12.011   -6.412308   -1.137792   -0.895746
  12 C     6.0000    0    12.011    6.740960    0.010514   -4.861213
  13 C     6.0000    0    12.011    7.504236    1.785579   -0.475352
  14 C     6.0000    0    12.011   -2.537677   -2.853799    4.928082
  15 C     6.0000    0    12.011    6.719216    2.276729    1.974213
  16 C     6.0000    0    12.011   -7.575865   -3.596869   -1.708967
  17 C     6.0000    0    12.011    4.690205    0.478784   -6.761189
  18 C     6.0000    0    12.011   -9.987170   -4.225067   -1.380911
  19 C     6.0000    0    12.011    3.777288   -1.248063   -8.332574
  20 H     1.0000    0     1.008   -1.605020    0.295108   -1.540165
  21 H     1.0000    0     1.008    2.338442   -1.249536   -2.588023
  22 H     1.0000    0     1.008    1.369046   -2.105790    5.592079
  23 H     1.0000    0     1.008   -7.872628    0.046878   -0.029418
  24 H     1.0000    0     1.008   -5.720427   -0.106977   -2.543931
  25 H     1.0000    0     1.008    7.396944   -1.944927   -5.028091
  26 H     1.0000    0     1.008    8.367637    1.213591   -5.293537
  27 H     1.0000    0     1.008    9.360689    2.402464   -1.080901
  28 H     1.0000    0     1.008   -2.830196   -3.788709    6.723243
  29 H     1.0000    0     1.008    7.913304    3.296355    3.284329
  30 H     1.0000    0     1.008   -6.294796   -4.939907   -2.586723
  31 H     1.0000    0     1.008    3.900237    2.372767   -6.776052
  32 H     1.0000    0     1.008    1.871658    2.345680    5.404888
  33 H     1.0000    0     1.008   -7.894060   -3.955745    2.610157
  34 H     1.0000    0     1.008  -10.719154   -6.034090   -1.992979
  35 H     1.0000    0     1.008  -11.326954   -2.923876   -0.532310
  36 H     1.0000    0     1.008    2.280661   -0.804037   -9.654757
  37 H     1.0000    0     1.008    4.494835   -3.168625   -8.350420
  38 H     1.0000    0     1.008   -8.483878    1.450756    4.417853
  39 H     1.0000    0     1.008   -6.625971   -0.727609    7.957286
  40 O     8.0000    0    15.999   -4.060849    2.174250    8.455929
  41 C     6.0000    0    12.011   -6.619319    1.316125    8.170392
  42 C     6.0000    0    12.011   -7.504059    2.643943    5.770790
  43 C     6.0000    0    12.011   -3.322675    3.360281    6.347943
  44 O     8.0000    0    15.999   -1.243947    4.144546    5.957738
  45 O     8.0000    0    15.999   -5.263736    3.562051    4.683520
  46 F     9.0000    0    18.998   -9.043436    4.659786    6.332820
  47 H     1.0000    0     1.008   -7.716052    1.901373    9.806032
  48 H     1.0000    0     1.008    3.513125    9.142492   -1.248745
  49 H     1.0000    0     1.008    4.316693    6.089416   -0.006601
  50 C     6.0000    0    12.011    2.848825    7.233598   -0.881337
  51 F     9.0000    0    18.998   -0.729615    9.564574    0.579904
  52 C     6.0000    0    12.011    0.417636    7.222093    0.661273
  53 H     1.0000    0     1.008    0.587312    6.670729    2.630199
  54 O     8.0000    0    15.999    2.109250    6.087803   -3.227550
  55 O     8.0000    0    15.999   -1.124833    5.484922   -0.610407
  56 C     6.0000    0    12.011   -0.159127    4.984375   -2.952393
  57 O     8.0000    0    15.999   -1.192683    3.711321   -4.491345

--------------------------------
INTERNAL COORDINATES (ANGSTROEM)
--------------------------------
 O      0   0   0     0.000000000000     0.00000000     0.00000000
 O      1   0   0     6.386312008461     0.00000000     0.00000000
 C      1   2   0     2.443935523713    61.77052609     0.00000000
 C      3   1   2     1.480004087722    95.39981611     0.15635272
 C      2   1   3     2.427127414986    49.49915487   332.59052365
 C      5   2   1     1.388628040744   146.92105764    19.48168575
 C      3   1   2     2.448936391181   116.85942986   179.81287461
 C      7   3   1     1.388824647625    28.58829442   182.93385648
 C      1   2   3     1.361176305578    90.25478633   358.37621661
 C      4   3   1     1.397296566918   122.03733135   315.49917962
 C      2   1   3     1.374728735171    24.66622432   359.71780175
 C      5   2   1     1.511455121563    92.63640848   202.53906181
 C      7   3   1     1.514256448568   149.33351307   182.62565237
 C      7   3   1     1.392898593717    89.24279641     3.76305374
 C     10   4   3     1.386153461513   120.86126119   181.98164190
 C     14   7   3     1.385783103000   120.73861810   358.80920402
 C     12   5   2     1.502551816934   112.91798555   298.46150235
 C     13   7   3     1.499989343589   113.07702239    43.18431395
 C     17  12   5     1.329977414798   124.90691534   121.89688672
 C     18  13   7     1.326607487763   124.73730571   238.98187086
 H      6   5   2     1.081287671717   117.57139494   181.83192601
 H      8   7   3     1.082104992353   118.68607362   180.61583806
 H     10   4   3     1.081301219280   119.90538774     0.72093823
 H     12   5   2     1.095601165902   110.21260217    60.68606773
 H     12   5   2     1.091926534058   107.95666488   176.69076936
 H     13   7   3     1.095014694174   110.02380759   280.59015343
 H     13   7   3     1.094818454087   108.26836880   164.61633999
 H     14   7   3     1.083671014590   119.79250759   179.73851658
 H     15  10   4     1.082193974972   120.76619306   178.43688328
 H     16  14   7     1.082149616508   121.18066160   182.07329943
 H     17  12   5     1.086469971224   115.67548348   303.33095321
 H     18  13   7     1.085966427849   115.83730945    57.40983078
 H      1   2   3     0.970976035857    34.37005225   128.96730233
 H      2   1   3     0.970251542125   132.79483575   337.20778098
 H     19  17  12     1.082292325523   121.69471578   180.51485571
 H     19  17  12     1.085554253428   121.47039178     2.24951370
 H     20  18  13     1.082580489071   121.46717201   179.41848517
 H     20  18  13     1.084974532278   121.55069195   359.46502020
 H     24  12   5     2.488974158123   131.15478485   347.05685246
 H     39  24  12     2.409045431943   122.63398462   338.81524872
 O     40  39  24     2.066454703460    90.67477159   107.32911797
 C     40  39  24     1.087367188887    66.79832109   141.64332670
 C     39  24  12     1.086319312073   137.27434841    65.51282792
 C     41  40  39     1.338219313900   115.70999043   327.33919488
 O     44  41  40     1.193695439274   125.18657390   216.54242156
 O     44  41  40     1.357288852552   110.91070214    36.52578494
 F     43  39  24     1.374759298087   108.10545132   116.21418888
 H     42  40  39     1.087153826096   111.35686290   118.48768941
 H     16  14   7     4.357451859214    84.66257005   273.02924894
 H     49  16  14     1.795300890343     9.64427216    93.77695341
 C     49  16  14     1.087090160947    44.03876481    91.91127640
 F     51  49  16     2.388571669289    80.46781399   136.04363230
 C     52  51  49     1.380941690401    36.67920176   196.54188612
 H     53  52  51     1.085711691551   107.90908342   128.38609177
 O     51  49  16     1.436063635530   109.01601190   240.19241737
 O     53  52  51     1.401484975918   108.52813787   246.87891508
 C     55  51  49     1.342776376296   109.47990617   227.34943720
 O     57  55  51     1.190034106578   125.64877797   186.23661832

---------------------------
INTERNAL COORDINATES (A.U.)
---------------------------
 O      0   0   0     0.000000000000     0.00000000     0.00000000
 O      1   0   0    12.068380701764     0.00000000     0.00000000
 C      1   2   0     4.618368828779    61.77052609     0.00000000
 C      3   1   2     2.796802402878    95.39981611     0.15635272
 C      2   1   3     4.586606106455    49.49915487   332.59052365
 C      5   2   1     2.624126698889   146.92105764    19.48168575
 C      3   1   2     4.627819098725   116.85942986   179.81287461
 C      7   3   1     2.624498232051    28.58829442   182.93385648
 C      1   2   3     2.572250437524    90.25478633   358.37621661
 C      4   3   1     2.640507839344   122.03733135   315.49917962
 C      2   1   3     2.597860817906    24.66622432   359.71780175
 C      5   2   1     2.856236243466    92.63640848   202.53906181
 C      7   3   1     2.861529984318   149.33351307   182.62565237
 C      7   3   1     2.632196874450    89.24279641     3.76305374
 C     10   4   3     2.619450421846   120.86126119   181.98164190
 C     14   7   3     2.618750545686   120.73861810   358.80920402
 C     12   5   2     2.839411436032   112.91798555   298.46150235
 C     13   7   3     2.834569063183   113.07702239    43.18431395
 C     17  12   5     2.513293078269   124.90691534   121.89688672
 C     18  13   7     2.506924839080   124.73730571   238.98187086
 H      6   5   2     2.043337571530   117.57139494   181.83192601
 H      8   7   3     2.044882083697   118.68607362   180.61583806
 H     10   4   3     2.043363172714   119.90538774     0.72093823
 H     12   5   2     2.070386155560   110.21260217    60.68606773
 H     12   5   2     2.063442107732   107.95666488   176.69076936
 H     13   7   3     2.069277884608   110.02380759   280.59015343
 H     13   7   3     2.068907044587   108.26836880   164.61633999
 H     14   7   3     2.047841436844   119.79250759   179.73851658
 H     15  10   4     2.045050236478   120.76619306   178.43688328
 H     16  14   7     2.044966411128   121.18066160   182.07329943
 H     17  12   5     2.053130698343   115.67548348   303.33095321
 H     18  13   7     2.052179139267   115.83730945    57.40983078
 H      1   2   3     1.834878790371    34.37005225   128.96730233
 H      2   1   3     1.833509695630   132.79483575   337.20778098
 H     19  17  12     2.045236092084   121.69471578   180.51485571
 H     19  17  12     2.051400242492   121.47039178     2.24951370
 H     20  18  13     2.045780642271   121.46717201   179.41848517
 H     20  18  13     2.050304728285   121.55069195   359.46502020
 H     24  12   5     4.703479513260   131.15478485   347.05685246
 H     39  24  12     4.552436110547   122.63398462   338.81524872
 O     40  39  24     3.905033457694    90.67477159   107.32911797
 C     40  39  24     2.054826194008    66.79832109   141.64332670
 C     39  24  12     2.052845993808   137.27434841    65.51282792
 C     41  40  39     2.528868010395   115.70999043   327.33919488
 O     44  41  40     2.255757467538   125.18657390   216.54242156
 O     44  41  40     2.564904215948   110.91070214    36.52578494
 F     43  39  24     2.597918573446   108.10545132   116.21418888
 H     42  40  39     2.054422996767   111.35686290   118.48768941
 H     16  14   7     8.234390655661    84.66257005   273.02924894
 H     49  16  14     3.392627010733     9.64427216    93.77695341
 C     49  16  14     2.054302687070    44.03876481    91.91127640
 F     51  49  16     4.513746306199    80.46781399   136.04363230
 C     52  51  49     2.609601601771    36.67920176   196.54188612
 H     53  52  51     2.051697757428   107.90908342   128.38609177
 O     51  49  16     2.713766982036   109.01601190   240.19241737
 O     53  52  51     2.648422785290   108.52813787   246.87891508
 C     55  51  49     2.537479610298   109.47990617   227.34943720
 O     57  55  51     2.248838551457   125.64877797   186.23661832

---------------------
BASIS SET INFORMATION
---------------------
There are 4 groups of distinct atoms

 Group   1 Type O   : 11s6p2d1f contracted to 5s3p2d1f pattern {62111/411/11/1}
 Group   2 Type C   : 11s6p2d1f contracted to 5s3p2d1f pattern {62111/411/11/1}
 Group   3 Type H   : 5s1p contracted to 3s1p pattern {311/1}
 Group   4 Type F   : 11s6p2d1f contracted to 5s3p2d1f pattern {62111/411/11/1}

Atom   0O    basis set group =>   1
Atom   1O    basis set group =>   1
Atom   2C    basis set group =>   2
Atom   3C    basis set group =>   2
Atom   4C    basis set group =>   2
Atom   5C    basis set group =>   2
Atom   6C    basis set group =>   2
Atom   7C    basis set group =>   2
Atom   8C    basis set group =>   2
Atom   9C    basis set group =>   2
Atom  10C    basis set group =>   2
Atom  11C    basis set group =>   2
Atom  12C    basis set group =>   2
Atom  13C    basis set group =>   2
Atom  14C    basis set group =>   2
Atom  15C    basis set group =>   2
Atom  16C    basis set group =>   2
Atom  17C    basis set group =>   2
Atom  18C    basis set group =>   2
Atom  19C    basis set group =>   2
Atom  20H    basis set group =>   3
Atom  21H    basis set group =>   3
Atom  22H    basis set group =>   3
Atom  23H    basis set group =>   3
Atom  24H    basis set group =>   3
Atom  25H    basis set group =>   3
Atom  26H    basis set group =>   3
Atom  27H    basis set group =>   3
Atom  28H    basis set group =>   3
Atom  29H    basis set group =>   3
Atom  30H    basis set group =>   3
Atom  31H    basis set group =>   3
Atom  32H    basis set group =>   3
Atom  33H    basis set group =>   3
Atom  34H    basis set group =>   3
Atom  35H    basis set group =>   3
Atom  36H    basis set group =>   3
Atom  37H    basis set group =>   3
Atom  38H    basis set group =>   3
Atom  39H    basis set group =>   3
Atom  40O    basis set group =>   1
Atom  41C    basis set group =>   2
Atom  42C    basis set group =>   2
Atom  43C    basis set group =>   2
Atom  44O    basis set group =>   1
Atom  45O    basis set group =>   1
Atom  46F    basis set group =>   4
Atom  47H    basis set group =>   3
Atom  48H    basis set group =>   3
Atom  49H    basis set group =>   3
Atom  50C    basis set group =>   2
Atom  51F    basis set group =>   4
Atom  52C    basis set group =>   2
Atom  53H    basis set group =>   3
Atom  54O    basis set group =>   1
Atom  55O    basis set group =>   1
Atom  56C    basis set group =>   2
Atom  57O    basis set group =>   1
---------------------------------
AUXILIARY/J BASIS SET INFORMATION
---------------------------------
There are 4 groups of distinct atoms

 Group   1 Type O   : 12s5p4d2f1g contracted to 6s4p3d1f1g pattern {711111/2111/211/2/1}
 Group   2 Type C   : 12s5p4d2f1g contracted to 6s4p3d1f1g pattern {711111/2111/211/2/1}
 Group   3 Type H   : 5s2p1d contracted to 3s1p1d pattern {311/2/1}
 Group   4 Type F   : 12s5p4d2f1g contracted to 6s4p3d1f1g pattern {711111/2111/211/2/1}

Atom   0O    basis set group =>   1
Atom   1O    basis set group =>   1
Atom   2C    basis set group =>   2
Atom   3C    basis set group =>   2
Atom   4C    basis set group =>   2
Atom   5C    basis set group =>   2
Atom   6C    basis set group =>   2
Atom   7C    basis set group =>   2
Atom   8C    basis set group =>   2
Atom   9C    basis set group =>   2
Atom  10C    basis set group =>   2
Atom  11C    basis set group =>   2
Atom  12C    basis set group =>   2
Atom  13C    basis set group =>   2
Atom  14C    basis set group =>   2
Atom  15C    basis set group =>   2
Atom  16C    basis set group =>   2
Atom  17C    basis set group =>   2
Atom  18C    basis set group =>   2
Atom  19C    basis set group =>   2
Atom  20H    basis set group =>   3
Atom  21H    basis set group =>   3
Atom  22H    basis set group =>   3
Atom  23H    basis set group =>   3
Atom  24H    basis set group =>   3
Atom  25H    basis set group =>   3
Atom  26H    basis set group =>   3
Atom  27H    basis set group =>   3
Atom  28H    basis set group =>   3
Atom  29H    basis set group =>   3
Atom  30H    basis set group =>   3
Atom  31H    basis set group =>   3
Atom  32H    basis set group =>   3
Atom  33H    basis set group =>   3
Atom  34H    basis set group =>   3
Atom  35H    basis set group =>   3
Atom  36H    basis set group =>   3
Atom  37H    basis set group =>   3
Atom  38H    basis set group =>   3
Atom  39H    basis set group =>   3
Atom  40O    basis set group =>   1
Atom  41C    basis set group =>   2
Atom  42C    basis set group =>   2
Atom  43C    basis set group =>   2
Atom  44O    basis set group =>   1
Atom  45O    basis set group =>   1
Atom  46F    basis set group =>   4
Atom  47H    basis set group =>   3
Atom  48H    basis set group =>   3
Atom  49H    basis set group =>   3
Atom  50C    basis set group =>   2
Atom  51F    basis set group =>   4
Atom  52C    basis set group =>   2
Atom  53H    basis set group =>   3
Atom  54O    basis set group =>   1
Atom  55O    basis set group =>   1
Atom  56C    basis set group =>   2
Atom  57O    basis set group =>   1
--------------------------------------------------------------------------
WARNING: There was an error initializing an OpenFabrics device.

  Local host:   ga00
  Local device: mlx5_0
--------------------------------------------------------------------------


           ************************************************************
           *        Program running with 25 parallel MPI-processes    *
           *              working on a common directory               *
           ************************************************************
------------------------------------------------------------------------------
                             ORCA STARTUP CALCULATIONS
                           -- RI-GTO INTEGRALS CHOSEN --
------------------------------------------------------------------------------
------------------------------------------------------------------------------
                   ___                                                        
                  /   \      - P O W E R E D   B Y -                         
                 /     \                                                     
                 |  |  |   _    _      __       _____    __    __             
                 |  |  |  | |  | |    /  \     |  _  \  |  |  /  |          
                  \  \/   | |  | |   /    \    | | | |  |  | /  /          
                 / \  \   | |__| |  /  /\  \   | |_| |  |  |/  /          
                |  |  |   |  __  | /  /__\  \  |    /   |      \           
                |  |  |   | |  | | |   __   |  |    \   |  |\   \          
                \     /   | |  | | |  |  |  |  | |\  \  |  | \   \       
                 \___/    |_|  |_| |__|  |__|  |_| \__\ |__|  \__/        
                                                                              
                      - O R C A' S   B I G   F R I E N D -                    
                                      &                                       
                       - I N T E G R A L  F E E D E R -                       
                                                                              
 v1 FN, 2020, v2 2021, v3 2022-2024                                           
------------------------------------------------------------------------------


----------------------
SHARK INTEGRAL PACKAGE
----------------------

Number of atoms                             ...     58
Number of basis functions                   ...   1198
Number of shells                            ...    470
Maximum angular momentum                    ...      3
Integral batch strategy                     ... SHARK/LIBINT Hybrid
RI-J (if used) integral strategy            ... SPLIT-RIJ (Revised 2003 algorithm where possible)
Printlevel                                  ...      1
Contraction scheme used                     ... SEGMENTED contraction
Prescreening option                         ... SCHWARTZ
   Thresh                                   ... 2.500e-11
   Tcut                                     ... 2.500e-12
   Tpresel                                  ... 2.500e-12 
Coulomb Range Separation                    ... NOT USED
Exchange Range Separation                   ... NOT USED
Multipole approximations                    ... NOT USED
Finite Nucleus Model                        ... NOT USED
CABS basis                                  ... NOT available
Auxiliary Coulomb fitting basis             ... AVAILABLE
   # of basis functions in Aux-J            ...   1930
   # of shells in Aux-J                     ...    630
   Maximum angular momentum in Aux-J        ...      4
Auxiliary J/K fitting basis                 ... NOT available
Auxiliary Correlation fitting basis         ... NOT available
Auxiliary 'external' fitting basis          ... NOT available

Checking pre-screening integrals            ... done (  0.0 sec) Dimension = 470
Check shell pair data                       ... done (  0.0 sec)
Shell pair information
Shell pair cut-off parameter TPreSel        ...   2.5e-12
Total number of shell pairs                 ...    110685
Shell pairs after pre-screening             ...     69373
Total number of primitive shell pairs       ...    340720
Primitive shell pairs kept                  ...    134362
          la=0 lb=0:  17838 shell pairs
          la=1 lb=0:  20303 shell pairs
          la=1 lb=1:   5816 shell pairs
          la=2 lb=0:   9669 shell pairs
          la=2 lb=1:   5709 shell pairs
          la=2 lb=2:   1378 shell pairs
          la=3 lb=0:   4432 shell pairs
          la=3 lb=1:   2704 shell pairs
          la=3 lb=2:   1224 shell pairs
          la=3 lb=3:    300 shell pairs

Calculating one electron integrals          ... done (  0.1 sec)
Calculating RI/J V-Matrix + Cholesky decomp.... done (  0.2 sec)
Calculating Nuclear repulsion               ... done (  0.0 sec) ENN=   3890.291599930646 Eh

Diagonalization of the overlap matrix:
Smallest eigenvalue                        ... 4.322e-06
Time for diagonalization                   ...    0.242 sec
Threshold for overlap eigenvalues          ... 1.000e-07
Number of eigenvalues below threshold      ... 0
Time for construction of square roots      ...    0.109 sec
Total time needed                          ...    0.361 sec

-------------------
DFT GRID GENERATION
-------------------

General Integration Accuracy     IntAcc      ... 4.388
Radial Grid Type                 RadialGrid  ... OptM3 with GC (2021)
Angular Grid (max. ang.)         AngularGrid ... 4 (Lebedev-302)
Angular grid pruning method      GridPruning ... 4 (adaptive)
Weight generation scheme         WeightScheme... mBecke (2022)
Basis function cutoff            BFCut       ... 1.0000e-11
Integration weight cutoff        WCut        ... 1.0000e-14
Partially contracted basis set               ... off
Rotationally invariant grid construction     ... off
Angular grids for H and He will be reduced by one unit

Total number of grid points                  ...   278514
Total number of batches                      ...     4380
Average number of points per batch           ...       63
Average number of grid points per atom       ...     4802

--------------------
COSX GRID GENERATION
--------------------

GRIDX 1
-------
General Integration Accuracy     IntAcc      ... 3.816
Radial Grid Type                 RadialGrid  ... OptM3 with GC (2021)
Angular Grid (max. ang.)         AngularGrid ... 1 (Lebedev-50)
Angular grid pruning method      GridPruning ... 4 (adaptive)
Weight generation scheme         WeightScheme... mBecke (2022)
Basis function cutoff            BFCut       ... 1.0000e-11
Integration weight cutoff        WCut        ... 1.0000e-14
Partially contracted basis set               ... on
Rotationally invariant grid construction     ... off
Angular grids for H and He will be reduced by one unit

Total number of grid points                  ...    35200
Total number of batches                      ...      311
Average number of points per batch           ...      113
Average number of grid points per atom       ...      607
UseSFitting                                  ... on

GRIDX 2
-------
General Integration Accuracy     IntAcc      ... 4.020
Radial Grid Type                 RadialGrid  ... OptM3 with GC (2021)
Angular Grid (max. ang.)         AngularGrid ... 2 (Lebedev-110)
Angular grid pruning method      GridPruning ... 4 (adaptive)
Weight generation scheme         WeightScheme... mBecke (2022)
Basis function cutoff            BFCut       ... 1.0000e-11
Integration weight cutoff        WCut        ... 1.0000e-14
Partially contracted basis set               ... on
Rotationally invariant grid construction     ... off
Angular grids for H and He will be reduced by one unit

Total number of grid points                  ...    76469
Total number of batches                      ...      629
Average number of points per batch           ...      121
Average number of grid points per atom       ...     1318
UseSFitting                                  ... on

GRIDX 3
-------
General Integration Accuracy     IntAcc      ... 4.338
Radial Grid Type                 RadialGrid  ... OptM3 with GC (2021)
Angular Grid (max. ang.)         AngularGrid ... 3 (Lebedev-194)
Angular grid pruning method      GridPruning ... 4 (adaptive)
Weight generation scheme         WeightScheme... mBecke (2022)
Basis function cutoff            BFCut       ... 1.0000e-11
Integration weight cutoff        WCut        ... 1.0000e-14
Partially contracted basis set               ... on
Rotationally invariant grid construction     ... off
Angular grids for H and He will be reduced by one unit

Total number of grid points                  ...   166794
Total number of batches                      ...     1332
Average number of points per batch           ...      125
Average number of grid points per atom       ...     2876
UseSFitting                                  ... on
Initializing property integral containers    ... done (  0.0 sec)

SHARK setup successfully completed in   4.6 seconds
[ga00:4183034] 24 more processes have sent help message help-mpi-btl-openib.txt / error in device init
[...]
      dz2     :     0.281627  d :     1.079468
      dxz     :     0.249684
      dyz     :     0.175858
      dx2y2   :     0.186489
      dxy     :     0.185810
      f0      :     0.038432  f :     0.193088
      f+1     :     0.028332
      f-1     :     0.027970
      f+2     :     0.030821
      f-2     :     0.027245
      f+3     :     0.021405
      f-3     :     0.018883

 57 O s       :     3.395316  s :     3.395316
      pz      :     1.492855  p :     4.406681
      px      :     1.526641
      py      :     1.387185
      dz2     :     0.014061  d :     0.066752
      dxz     :     0.015032
      dyz     :     0.020214
      dx2y2   :     0.008086
      dxy     :     0.009358
      f0      :     0.000836  f :     0.006650
      f+1     :     0.000973
      f-1     :     0.001392
      f+2     :     0.001089
      f-2     :     0.001573
      f+3     :     0.000424
      f-3     :     0.000363



                      *****************************
                      * MAYER POPULATION ANALYSIS *
                      *****************************

  NA   - Mulliken gross atomic population
  ZA   - Total nuclear charge
  QA   - Mulliken gross atomic charge
  VA   - Mayer's total valence
  BVA  - Mayer's bonded valence
  FA   - Mayer's free valence

  ATOM       NA         ZA         QA         VA         BVA        FA
  0 O      8.4103     8.0000    -0.4103     2.0567     2.0567     0.0000
  1 O      8.4418     8.0000    -0.4418     2.0005     2.0005     0.0000
  2 C      5.8979     6.0000     0.1021     3.3108     3.3108     0.0000
  3 C      5.9330     6.0000     0.0670     3.6273     3.6273    -0.0000
  4 C      5.9665     6.0000     0.0335     3.6058     3.6058    -0.0000
  5 C      6.1884     6.0000    -0.1884     3.9213     3.9213     0.0000
  6 C      5.8969     6.0000     0.1031     3.6973     3.6973     0.0000
  7 C      6.2552     6.0000    -0.2552     3.7787     3.7787     0.0000
  8 C      5.8194     6.0000     0.1806     3.9090     3.9090    -0.0000
  9 C      6.2030     6.0000    -0.2030     3.9151     3.9151    -0.0000
 10 C      5.7373     6.0000     0.2627     3.7109     3.7109     0.0000
 11 C      6.2765     6.0000    -0.2765     3.9334     3.9334    -0.0000
 12 C      6.1640     6.0000    -0.1640     3.8935     3.8935     0.0000
 13 C      6.1533     6.0000    -0.1533     3.8478     3.8478    -0.0000
 14 C      6.2655     6.0000    -0.2655     3.8928     3.8928    -0.0000
 15 C      6.2575     6.0000    -0.2575     3.9784     3.9784    -0.0000
 16 C      6.1245     6.0000    -0.1245     3.7879     3.7879    -0.0000
 17 C      6.1066     6.0000    -0.1066     3.8423     3.8423    -0.0000
 18 C      6.2850     6.0000    -0.2850     3.9084     3.9084    -0.0000
 19 C      6.2699     6.0000    -0.2699     3.9528     3.9528     0.0000
 20 H      0.8210     1.0000     0.1790     0.9595     0.9595     0.0000
 21 H      0.8391     1.0000     0.1609     0.9645     0.9645     0.0000
 22 H      0.8750     1.0000     0.1250     0.9877     0.9877    -0.0000
 23 H      0.8838     1.0000     0.1162     0.9671     0.9671     0.0000
 24 H      0.8522     1.0000     0.1478     0.9852     0.9852     0.0000
 25 H      0.9088     1.0000     0.0912     0.9694     0.9694     0.0000
 26 H      0.8946     1.0000     0.1054     0.9664     0.9664     0.0000
 27 H      0.9054     1.0000     0.0946     0.9760     0.9760    -0.0000
 28 H      0.8901     1.0000     0.1099     0.9872     0.9872    -0.0000
 29 H      0.8968     1.0000     0.1032     0.9949     0.9949     0.0000
 30 H      0.8793     1.0000     0.1207     0.9775     0.9775     0.0000
 31 H      0.8695     1.0000     0.1305     0.9898     0.9898    -0.0000
 32 H      0.6718     1.0000     0.3282     0.9426     0.9426     0.0000
 33 H      0.6714     1.0000     0.3286     0.9280     0.9280     0.0000
 34 H      0.8735     1.0000     0.1265     0.9761     0.9761     0.0000
 35 H      0.8775     1.0000     0.1225     0.9740     0.9740    -0.0000
 36 H      0.8854     1.0000     0.1146     0.9747     0.9747     0.0000
 37 H      0.9019     1.0000     0.0981     0.9764     0.9764     0.0000
 38 H      0.8999     1.0000     0.1001     0.9836     0.9836    -0.0000
 39 H      0.8638     1.0000     0.1362     0.9702     0.9702    -0.0000
 40 O      8.2425     8.0000    -0.2425     2.1757     2.1757     0.0000
 41 C      6.0319     6.0000    -0.0319     3.8167     3.8167     0.0000
 42 C      5.7426     6.0000     0.2574     4.0533     4.0533    -0.0000
 43 C      5.5101     6.0000     0.4899     4.3110     4.3110     0.0000
 44 O      8.3651     8.0000    -0.3651     2.1116     2.1116    -0.0000
 45 O      8.2346     8.0000    -0.2346     2.1456     2.1456    -0.0000
 46 F      9.2111     9.0000    -0.2111     1.0597     1.0597     0.0000
 47 H      0.8616     1.0000     0.1384     0.9720     0.9720     0.0000
 48 H      0.8733     1.0000     0.1267     0.9742     0.9742    -0.0000
 49 H      0.8606     1.0000     0.1394     0.9342     0.9342    -0.0000
 50 C      6.0093     6.0000    -0.0093     3.8266     3.8266    -0.0000
 51 F      9.2242     9.0000    -0.2242     1.0445     1.0445     0.0000
 52 C      5.7594     6.0000     0.2406     4.0308     4.0308     0.0000
 53 H      0.8696     1.0000     0.1304     0.9770     0.9770     0.0000
 54 O      8.2572     8.0000    -0.2572     2.1500     2.1500     0.0000
 55 O      8.2464     8.0000    -0.2464     2.1142     2.1142     0.0000
 56 C      5.5977     6.0000     0.4023     4.4276     4.4276    -0.0000
 57 O      8.2895     8.0000    -0.2895     2.2096     2.2096     0.0000

  Mayer bond orders larger than 0.100000
B(  0-O ,  8-C ) :   1.1029 B(  0-O , 32-H ) :   0.8413 B(  1-O , 10-C ) :   1.0227 
B(  1-O , 33-H ) :   0.8496 B(  2-C ,  3-C ) :   0.8480 B(  2-C ,  7-C ) :   1.2708 
B(  2-C ,  8-C ) :   1.2339 B(  3-C ,  5-C ) :   1.3690 B(  3-C ,  9-C ) :   1.3544 
B(  4-C ,  5-C ) :   1.3979 B(  4-C , 10-C ) :   1.2417 B(  4-C , 11-C ) :   0.8921 
B(  5-C , 20-H ) :   0.9123 B(  6-C ,  7-C ) :   1.3951 B(  6-C , 12-C ) :   0.9465 
B(  6-C , 13-C ) :   1.3132 B(  7-C , 21-H ) :   0.9574 B(  8-C , 15-C ) :   1.4232 
B(  9-C , 14-C ) :   1.3951 B(  9-C , 22-H ) :   0.9993 B( 10-C , 14-C ) :   1.3683 
B( 11-C , 16-C ) :   0.9552 B( 11-C , 23-H ) :   0.9759 B( 11-C , 24-H ) :   0.9736 
B( 12-C , 17-C ) :   0.9886 B( 12-C , 25-H ) :   0.9462 B( 12-C , 26-H ) :   0.9762 
B( 13-C , 15-C ) :   1.4148 B( 13-C , 27-H ) :   1.0010 B( 14-C , 28-H ) :   1.0029 
B( 15-C , 29-H ) :   1.0087 B( 16-C , 18-C ) :   1.8763 B( 16-C , 30-H ) :   0.9565 
B( 17-C , 19-C ) :   1.9375 B( 17-C , 31-H ) :   0.9394 B( 18-C , 34-H ) :   0.9686 
B( 18-C , 35-H ) :   0.9654 B( 19-C , 36-H ) :   0.9658 B( 19-C , 37-H ) :   0.9631 
B( 38-H , 42-C ) :   0.9666 B( 39-H , 41-C ) :   0.9392 B( 40-O , 41-C ) :   0.9163 
B( 40-O , 43-C ) :   1.1940 B( 41-C , 42-C ) :   0.9780 B( 41-C , 47-H ) :   0.9557 
B( 42-C , 45-O ) :   0.9897 B( 42-C , 46-F ) :   1.0589 B( 43-C , 44-O ) :   1.9288 
B( 43-C , 45-O ) :   1.1073 B( 48-H , 50-C ) :   0.9593 B( 49-H , 50-C ) :   0.9429 
B( 50-C , 52-C ) :   0.9669 B( 50-C , 54-O ) :   0.9167 B( 51-F , 52-C ) :   1.0411 
B( 52-C , 53-H ) :   0.9731 B( 52-C , 55-O ) :   0.9859 B( 54-O , 56-C ) :   1.1657 
B( 55-O , 56-C ) :   1.0948 B( 56-C , 57-O ) :   2.0857 

-------
TIMINGS
-------

Total SCF time: 0 days 0 hours 0 min 51 sec 

Total time                  ....      51.321 sec
Sum of individual times     ....      51.005 sec  ( 99.4%)

SCF preparation             ....       0.966 sec  (  1.9%)
Fock matrix formation       ....      45.780 sec  ( 89.2%)
  Startup                   ....       0.168 sec  (  0.4% of F)
  Split-RI-J                ....       4.476 sec  (  9.8% of F)
  Chain of spheres X        ....      36.948 sec  ( 80.7% of F)
  XC integration            ....       3.742 sec  (  8.2% of F)
    XC Preparation          ....       0.000 sec  (  0.0% of XC)
    Basis function eval.    ....       0.934 sec  ( 25.0% of XC)
    Density eval.           ....       1.262 sec  ( 33.7% of XC)
    XC-Functional eval.     ....       0.049 sec  (  1.3% of XC)
    XC-Potential eval.      ....       1.027 sec  ( 27.5% of XC)
Diagonalization             ....       0.000 sec  (  0.0%)
Density matrix formation    ....       0.464 sec  (  0.9%)
Total Energy calculation    ....       0.225 sec  (  0.4%)
Population analysis         ....       0.415 sec  (  0.8%)
Orbital Transformation      ....       0.484 sec  (  0.9%)
Orbital Orthonormalization  ....       0.000 sec  (  0.0%)
DIIS solution               ....       0.556 sec  (  1.1%)
SOSCF solution              ....       2.114 sec  (  4.1%)
Finished LeanSCF after  51.6 sec

Maximum memory used throughout the entire LEANSCF-calculation: 234.3 MB


-------------------------------------------------------------------------------
                          DFT DISPERSION CORRECTION                            
                                                                               
                              DFTD3 V3.1  Rev 1                                
                          USING Becke-Johnson damping                          
-------------------------------------------------------------------------------
The B3LYP functional is recognized
Active option DFTDOPT                   ...         4   

molecular C6(AA) [au] = 35641.366538 


            DFT-D V3
 parameters
 s6 scaling factor         :     1.0000 
 a1 scaling factor         :     0.3981 
 s8 scaling factor         :     1.9889 
 a2 scaling factor         :     4.4211 
 ad hoc parameters k1-k3   :    16.0000     1.3333    -4.0000 

 Edisp/kcal,au: -84.807319292646  -0.135149051531 
 E6   /kcal   : -41.207483227 
 E8   /kcal   : -43.599836066 
 % E8         :  51.410463660 

-------------------------   ----------------
Dispersion correction           -0.135149052
-------------------------   ----------------


-------------------------   --------------------
FINAL SINGLE POINT ENERGY     -1730.376372268532
-------------------------   --------------------

                                *** OPTIMIZATION RUN DONE ***

--------------------------------------------------------------------------
WARNING: There was an error initializing an OpenFabrics device.

  Local host:   ga00
  Local device: mlx5_0
--------------------------------------------------------------------------


           ************************************************************
           *        Program running with 25 parallel MPI-processes    *
           *              working on a common directory               *
           ************************************************************

------------------------------------------------------------------------------
                              ORCA PROPERTY CALCULATIONS
------------------------------------------------------------------------------

GBWName                                 ... honokiol3_FEC2.gbw
Number of atoms                         ...     58
Number of basis functions               ...   1198
Max core memory                         ...   5000 MB

Electric properties:
Dipole moment                           ... YES
Quadrupole moment                       ...  NO
Static polarizability (Dipole/Dipole)   ...  NO
Static polarizability (Dipole/Quad.)    ...  NO
Static polarizability (Quad./Quad.)     ...  NO
Static polarizability (Velocity)        ...  NO

Atomic electric properties:
Dipole moment                           ...  NO
Quadrupole moment                       ...  NO
Static polarizability                   ...  NO

Choice of electric origin               ... Center of mass
Position of electric origin             ...    -1.050814     1.674018     1.169266

General magnetic properties:
Magnetizability                         ...  NO

EPR properties:
g-Tensor (aka g-matrix)                 ...  NO
Zero-Field splitting spin-orbit         ...  NO
Zero-field splitting spin-spin          ...  NO
Hyperfine couplings                     ...  NO (   0 nuclei)
Quadrupole couplings                    ...  NO (   0 nuclei)
Contact density                         ...  NO (   0 nuclei)

NMR properties:
Chemical shifts                         ...  NO (   0 nuclei)
Spin-rotation constants                 ...  NO (   0 nuclei)
Spin-spin couplings                     ...  NO (   0 nuclei,    0 pairs)

Choice of magnetic origin               ... GIAO
Position of magnetic origin             ...     0.000000     0.000000     0.000000

Properties with geometric perturbations:
SCF Hessian                             ...  NO
IR spectrum                             ...  NO
VCD spectrum                            ...  NO
X-ray spectroscopy properties:
SCF XES/XAS/RIXS spectra                ...  NO


-------------
DIPOLE MOMENT
-------------

Method             : SCF
Type of density    : Electron Density
Multiplicity       :   1
Irrep              :   0
Energy             : -1730.2412232170013340 Eh
Relativity type    : 
Basis              : AO
                                X                 Y                 Z
Electronic contribution:     -8.002748788      21.082079807      17.018808322
Nuclear contribution   :      6.980495314     -21.971485408     -15.994942268
                        -----------------------------------------
Total Dipole Moment    :     -1.022253475      -0.889405601       1.023866054
                        -----------------------------------------
Magnitude (a.u.)       :      1.698336300
Magnitude (Debye)      :      4.316827810



--------------------
Rotational spectrum 
--------------------
 
Rotational constants in cm-1:             0.005694             0.003058             0.002784 
Rotational constants in MHz :           170.712021            91.672455            83.450493 

Dipole components along the rotational axes: 
x,y,z [a.u.] :     1.534150    -0.350499    -0.638654 
x,y,z [Debye]:     3.899500    -0.890898    -1.623330 

 

Dipole moment calculation done in   0.1 sec 

Maximum memory used throughout the entire PROP-calculation: 133.2 MB
[ga00:61202] 24 more processes have sent help message help-mpi-btl-openib.txt / error in device init
[ga00:61202] Set MCA parameter "orte_base_help_aggregate" to 0 to see all help / error messages
--------------------------------------------------------------------------
WARNING: There was an error initializing an OpenFabrics device.

  Local host:   ga00
  Local device: mlx5_0
--------------------------------------------------------------------------
[ga00:61525] 24 more processes have sent help message help-mpi-btl-openib.txt / error in device init
[ga00:61525] Set MCA parameter "orte_base_help_aggregate" to 0 to see all help / error messages

--------------------------------
SUGGESTED CITATIONS FOR THIS RUN
--------------------------------

Below you find a list of papers that are relevant to this ORCA run
We neither can nor want to force you to cite these papers, but we appreciate if you do
You receive ORCA, which is the product of decades of hard work by many enthusiastic individuals, for free
The only thing we kindly ask in return is that you cite our papers,
We deeply appreciate it, if you show your appreciation for ORCA by not just citing the generic ORCA reference.

Please note that relegating all ORCA citations to the supporting information does *not* help us.
SI sections are not indexed - citations you put there will not count into any citation statistics
But we need these citations in order to attract the funding resources that allow us to do what we are doing

Therefore, if you are a happy ORCA user, please consider citing a few of the papers listed below in the main body of your paper

In addition to the list printed below, the program has created the file honokiol3_FEC2.bibtex that contains the list in bibtex format
You can import this file easily into all common literature databanks and citation aid programs


List of essential papers. We consider these as the minimum necessary citations

  1. Neese,F.
     Software update: the ORCA program system, version 5.0
     WIRES Comput. Molec. Sci., 2022 12(1)e1606
     doi.org/10.1002/wcms.1606

List of papers to cite with high priority. The work reported in these papers was absolutely
necessary for this run to complete.
Our perspective: the developers of density functionals and basis sets usually get cited in chemistry papers
Good! But without the algorithms to do something with them, the functionals or basis sets would not do anything.
Hence, in our opinion, the algorithm design and method developments papers are equally worthy of getting cited

  1. Neese,F.
     An improvement of the resolution of the identity approximation for the formation of the Coulomb matrix
     J. Comp. Chem., 2003 24(14)1740-1747
     doi.org/10.1002/jcc.10318
  2. Neese,F.; Wennmohs,F.; Hansen,A.; Becker,U.
     Efficient, approximate and parallel Hartree-Fock and hybrid DFT calculations. A 'chain-of-spheres' algorithm for the Hartree-Fock exchange
     Chem. Phys., 2009 356(1-3)98-109
     doi.org/10.1016/j.chemphys.2008.10.036
  3. Helmich-Paris,B.; de Souza,B.; Neese,F.; Izsák,R.
     An improved chain of spheres for exchange algorithm
     J. Chem. Phys., 2021 155 104109
     doi.org/doi: 10.1063/5.0058766.
  4. Neese,F.
     The SHARK Integral Generation and Digestion System
     J. Comp. Chem., 2022  1-16
     doi.org/10.1002/jcc.26942
  5. Grimme,S.; Antony,J.; Ehrlich,S.; Krieg,H.
     A consistent and accurate ab initio parametrization of density functional dispersion correction (DFT-D) for the 94 elements H-Pu
     J. Chem. Phys., 2010 132 154104
     doi.org/10.1063/1.3382344
  6. Grimme,S.; Ehrlich,S.; Goerigk,L.
     Effect of the damping function in dispersion corrected density functional theory
     J. Comput. Chem., 2011 32(7)1456-1465
     doi.org/10.1002/jcc.21759

List of suggested additional citations. These are papers that are important in the 'surrounding' of 
of this run, or papers that preceded the highly important papers. If you like your results we are grateful for a citation.

  1. Izsak,R.; Neese,F.
     An overlap fitted chain of spheres exchange method
     J. Chem. Phys., 2011 135 144105
     doi.org/10.1063/1.3646921
  2. Izsak,R.; Hansen,A.; Neese,F.
     The resolution of identity and chain of spheres approximations for the LPNO-CCSD singles Fock term
     Molec. Phys., 2012 110 2413-2417
     doi.org/10.1080/00268976.2012.687466
  3. Neese,F.
     The ORCA program system
     WIRES Comput. Molec. Sci., 2012 2(1)73-78
     doi.org/10.1002/wcms.81
  4. Izsak,R.; Neese,F.; Klopper,W.
     Robust fitting techniques in the chain of spheres approximation to the Fock exchange: The role of the complementary space
     J. Chem. Phys., 2013 139 
     doi.org/10.1063/1.4819264
  5. Neese,F.
     Software update: the ORCA program system, version 4.0
     WIRES Comput. Molec. Sci., 2018 8(1)1-6
     doi.org/10.1002/wcms.1327
  6. Neese,F.; Wennmohs,F.; Becker,U.; Riplinger,C.
     The ORCA quantum chemistry program package
     J. Chem. Phys., 2020 152 Art. No. L224108
     doi.org/10.1063/5.0004608

List of optional additional citations

  1. Neese,F.
     Approximate second-order SCF convergence for spin unrestricted wavefunctions
     Chem. Phys. Lett., 2000 325(1-3)93-98
     doi.org/10.1016/s0009-2614(00)00662-x

Timings for individual modules:

Sum of individual times          ...     3137.057 sec (=  52.284 min)
Startup calculation              ...      193.825 sec (=   3.230 min)   6.2 %
SCF iterations                   ...     2088.072 sec (=  34.801 min)  66.6 %
Property calculations            ...        1.254 sec (=   0.021 min)   0.0 %
SCF Gradient evaluation          ...      852.159 sec (=  14.203 min)  27.2 %
Geometry relaxation              ...        1.747 sec (=   0.029 min)   0.1 %
                             ****ORCA TERMINATED NORMALLY****
TOTAL RUN TIME: 0 days 0 hours 52 minutes 49 seconds 257 msec
