
                                 *****************
                                 * O   R   C   A *
                                 *****************

                                            #,                                       
                                            ###                                      
                                            ####                                     
                                            #####                                    
                                            ######                                   
                                           ########,                                 
                                     ,,################,,,,,                         
                               ,,#################################,,                 
                          ,,##########################################,,             
                       ,#########################################, ''#####,          
                    ,#############################################,,   '####,        
                  ,##################################################,,,,####,       
                ,###########''''           ''''###############################       
              ,#####''   ,,,,##########,,,,          '''####'''          '####       
            ,##' ,,,,###########################,,,                        '##       
           ' ,,###''''                  '''############,,,                           
         ,,##''                                '''############,,,,        ,,,,,,###''
      ,#''                                            '''#######################'''  
     '                                                          ''''####''''         
             ,#######,   #######,   ,#######,      ##                                
            ,#'     '#,  ##    ##  ,#'     '#,    #''#        ,####,   ,####,        
            ##       ##  ##   ,#'  ##            #'  '#       #'       #'  '#        
            ##       ##  #######   ##           ,######,      #####,   #    #        
            '#,     ,#'  ##    ##  '#,     ,#' ,#      #,     #,   #   #,  ,#        
             '#######'   ##     ##  '#######'  #'      '#     '####' # '####'        



                #########################################################
                #                        -***-                          #
                #          Department of theory and spectroscopy        #
                #                                                       #
                #                      Frank Neese                      #
                #                                                       #
                #     Directorship, Architecture, Infrastructure        #
                #                    SHARK, DRIVERS                     #
                #        Core code/Algorithms in most modules           #
                #                                                       #
                #        Max Planck Institute fuer Kohlenforschung      #
                #                Kaiser Wilhelm Platz 1                 #
                #                 D-45470 Muelheim/Ruhr                 #
                #                      Germany                          #
                #                                                       #
                #                  All rights reserved                  #
                #                        -***-                          #
                #########################################################


                         Program Version 6.0.1  -  RELEASE   -


 With contributions from (in alphabetic order):
[Max-Planck-Institut fuer Kohlenforschung]                               
  Daniel Aravena         : Magnetic Suceptibility                        
  Michael Atanasov       : Ab Initio Ligand Field Theory (pilot matlab implementation)
  Alexander A. Auer      : GIAO ZORA, VPT2 properties, NMR spectrum      
  Ute Becker             : All parallelization in ORCA, NUMFREQ, NUMCALC 
  Giovanni Bistoni       : ED, misc. LED, open-shell LED, HFLD           
  Martin Brehm           : Molecular dynamics                            
  Dmytro Bykov           : pre 5.0 version of the SCF Hessian            
  Marcos Casanova-Páez   : Triplet and SCS-CIS(D). UHF-(DLPNO)-IP/EA/STEOM-CCSD. UHF-CVS-IP/STEOM-CCSD   
  Vijay G. Chilkuri      : MRCI spin determinant printing, contributions to CSF-ICE 
  Pauline Colinet        : FMM embedding                                 
  Dipayan Datta          : RHF DLPNO-CCSD density                        
  Achintya Kumar Dutta   : EOM-CC, STEOM-CC                              
  Nicolas Foglia         : Exact transition moments, OPA infrastructure, MCD improvements    
  Dmitry Ganyushin       : Spin-Orbit,Spin-Spin,Magnetic field MRCI      
  Miquel Garcia-Rates    : C-PCM and meta-GGA Hessian, CCSD/C-PCM, Gaussian charge scheme 
  Tiago L. C. Gouveia    : GS-ROHF, GS-ROCIS                             
  Yang Guo               : DLPNO-NEVPT2, F12-NEVPT2, CIM, IAO-localization        
  Andreas Hansen         : Spin unrestricted coupled pair/coupled cluster methods 
  Ingolf Harden          : AUTO-CI MPn and infrastructure                
  Benjamin Helmich-Paris : MC-RPA, TRAH-(SCF,CASSCF), AVAS, COSX integrals, SCF dyn. polar. 
  Lee Huntington         : MR-EOM, pCC                                   
  Robert Izsak           : Overlap fitted RIJCOSX, COSX-SCS-MP3, EOM     
  Riya Kayal             : Wick's Theorem for AUTO-CI, AUTO-CI UHF-CCSDT 
  Emily Kempfer          : AUTO-CI, RHF CISDT and CCSDT                  
  Christian Kollmar      : KDIIS, OOCD, Brueckner-CCSD(T), CCSD density, CASPT2, CASPT2-K, improved NEVPT2 
  Axel Koslowski         : Symmetry handling                             
  Simone Kossmann        : meta-GGA functionals, TD-DFT gradient, OOMP2, (MP2 Hessian; deprecated post 5.0) 
  Lucas Lang             : DCDCAS                                        
  Marvin Lechner         : AUTO-CI (C++ implementation), FIC-MRCC        
  Spencer Leger          : CASSCF response                               
  Dagmar Lenk            : GEPOL surface, SMD, ORCA-2-JSON               
  Dimitrios Liakos       : Extrapolation schemes; Compound Job, initial MDCI parallelization 
  Dimitrios Manganas     : Further ROCIS development; embedding schemes. LFT, Crystal Embedding 
  Dimitrios Pantazis     : SARC Basis sets                               
  Anastasios Papadopoulos: AUTO-CI, single reference methods and gradients 
  Taras Petrenko         : pre 6.0 DFT Hessian and TD-DFT gradient, (ASA, deprecated), ECA, 1-Electron XAS/XES, NRVS 
  Peter Pinski           : DLPNO-MP2, DLPNO-MP2 Gradient                 
  Christoph Reimann      : Effective Core Potentials                     
  Marius Retegan         : Local ZFS, SOC                                
  Christoph Riplinger    : Optimizer, TS searches, QM/MM, DLPNO-CCSD(T), (RO)-DLPNO pert. Triples 
  Michael Roemelt        : Original ROCIS implementation                 
  Masaaki Saitow         : Open-shell DLPNO-CCSD energy and density      
  Barbara Sandhoefer     : DKH picture change effects                    
  Kantharuban Sivalingam : CASSCF convergence/infrastructure, NEVPT2 and variants, FIC-MRCI 
  Bernardo de Souza      : ESD, SOC TD-DFT                               
  Georgi L. Stoychev     : AutoAux, RI-MP2 NMR, DLPNO-MP2 response, X2C  
  Van Anh Tran           : RI-MP2 g-tensors                              
  Willem Van den Heuvel  : Paramagnetic NMR                              
  Zikuan Wang            : NOTCH, Electric field optimization            
  Frank Wennmohs         : Technical directorship and infrastructure     
  Hang Xu                : AUTO-CI-Response properties                   
                                                                         
[FACCTs GmbH]                                                            
  Markus Bursch, Miquel Garcia-Rates, Christoph Riplinger, Bernardo de Souza, Georgi L. Stoychev 
                                                                 
  APM, Basis sets (HGBS, AHGBS, def-TZVP (Ac-Lr), def2-XVPD (La-Lu)), CI-OPT, improved COSX, DLPNO-Multilevel,           
  DOCKER, DRACO, updates on ESD, GOAT, IRC, LR-CPCM, MBIS, meta-GGA TD-DFT gradient, ML-optimized integration grids, 
  MM, NACMEs, nearIR, NEB, NEB-TS, NL-DFT gradient (VV10), 2- and 3-layer-ONIOM, interface openCOSMO-RS, QMMM,   
  Crystal-QMMM, SF, symmetry and pop. for TD-DFT, r2SCAN hybrids, SOLVATOR                                   
                                                                         
[Other institutions]                                                     
  V. Asgeirsson          : NEB                                           
  Christoph Bannwarth    : sTDA-DFT, sTD-DFT, PBEh-3c, B97-3c, D3        
  Sebastian Ehlert       : rSCAN, r2SCAN, r2SCAN-3c, D4, dhf basis sets  
  Marvin Friede          : D4 for Fr, Ra, Ac-Lr                          
  Lars Goerigk           : TD-DFT with DH, B97 family of functionals     
  Stefan Grimme          : VdW corrections, initial TS optimization, DFT functionals, gCP, sTDA/sTD-DF 
  Waldemar Hujo          : DFT-NL                                        
  H. Jonsson             : NEB                                           
  Holger Kruse           : gCP                                           
  Marcel Mueller         : wB97X-3c, vDZP basis set                      
  Hagen Neugebauer       : wr2SCAN                                       
  Tobias Risthaus        : range-separated hybrid DFT                    
  Lukas Wittmann         : regularized MP2, r2SCAN double-hybrids, wr2SCAN        
                                                                         
We gratefully acknowledge several colleagues who have allowed us to      
interface, adapt or use parts of their codes:                            
  Ed Valeev, F. Pavosevic, A. Kumar             : LibInt (2-el integral package), F12 methods 
  Garnet Chan, S. Sharma, J. Yang, R. Olivares  : DMRG                   
  Ulf Ekstrom                                   : XCFun DFT Library      
  Mihaly Kallay                                 : mrcc  (arbitrary order and MRCC methods)
  Frank Weinhold                                : gennbo (NPA and NBO analysis)           
  Simon Mueller                                 : openCOSMO-RS                            
  Christopher J. Cramer and Donald G. Truhlar   : smd solvation model                     
  S Lehtola, MJT Oliveira, MAL Marques          : LibXC Library                           
  Liviu Ungur et al                             : ANISO software                          


 Your calculation uses the libint2 library for the computation of 2-el integrals
 For citations please refer to: http://libint.valeyev.net

 Your ORCA version has been built with support for libXC version: 6.2.2
 For citations please refer to: https://libxc.gitlab.io

 This ORCA versions uses:
   CBLAS   interface :  Fast vector & matrix operations
   LAPACKE interface :  Fast linear algebra routines
   SCALAPACK package :  Parallel linear algebra routines
   Shared memory     :  Shared parallel matrices
   BLAS/LAPACK       :  OpenBLAS 0.3.27  USE64BITINT DYNAMIC_ARCH NO_AFFINITY SkylakeX SINGLE_THREADED
        Core in use  :  SkylakeX
   Copyright (c) 2011-2014, The OpenBLAS Project


NOTE: MaxCore=5000 MB was set to SCF,MP2,MDCI,CIPSI,MRCI and CIS
      => If you want to overwrite this, your respective input block should be placed after the MaxCore statement
Warning: RI is on but no J-basis has been assigned. Assigning Def2/J (nothing to worry about!)
================================================================================

----- Orbital basis set information -----
Your calculation utilizes the basis: def2-TZVP
   F. Weigend and R. Ahlrichs, Phys. Chem. Chem. Phys. 7, 3297 (2005).

----- AuxJ basis set information -----
Your calculation utilizes the auxiliary basis: def2/J
   F. Weigend, Phys. Chem. Chem. Phys. 8, 1057 (2006).

================================================================================
                                        WARNINGS
                       Please study these warnings very carefully!
================================================================================


WARNING: Geometry Optimization
  ===> : Switching off AutoStart
         For restart on a previous wavefunction, please use MOREAD

================================================================================
                                       INPUT FILE
================================================================================
NAME = DMC.inp
|  1> ! Opt B3LYP def2-TZVP TightSCF TightOpt
|  2> 
|  3> %maxcore 5000
|  4> 
|  5> %pal
|  6> nprocs 20
|  7> end
|  8> 
|  9> * xyz 0 1
| 10> O         -1.10230       -0.69800        0.00020
| 11> O          1.10230       -0.69800        0.00020
| 12> O          0.00010        1.32640        0.00020
| 13> C          0.00000        0.10280        0.00050
| 14> C         -2.36110       -0.01660       -0.00060
| 15> C          2.36100       -0.01660       -0.00060
| 16> H         -2.45960        0.59780        0.89950
| 17> H         -3.15470       -0.76840       -0.00080
| 18> H         -2.45870        0.59750       -0.90100
| 19> H          3.15470       -0.76850       -0.00090
| 20> H          2.45960        0.59780        0.89950
| 21> H          2.45870        0.59740       -0.90090
| 22> *
| 23> 
| 24>                          ****END OF INPUT****
================================================================================

                       *****************************
                       * Geometry Optimization Run *
                       *****************************

Geometry optimization settings:
Update method            Update   .... BFGS
Choice of coordinates    CoordSys .... (2022) Redundant Internals
Initial Hessian          InHess   .... Almloef's Model
Max. no of cycles        MaxIter  .... 50

Convergence Tolerances:
Energy Change            TolE     ....  1.0000e-06 Eh
Max. Gradient            TolMAXG  ....  1.0000e-04 Eh/bohr
RMS Gradient             TolRMSG  ....  3.0000e-05 Eh/bohr
Max. Displacement        TolMAXD  ....  1.0000e-03 bohr
RMS Displacement         TolRMSD  ....  6.0000e-04 bohr
Strict Convergence                .... False

------------------------------------------------------------------------------
                        ORCA OPTIMIZATION COORDINATE SETUP
------------------------------------------------------------------------------

The optimization will be done in redundant internal coordinates (2022)
Making redundant internal coordinates   ...  (2022 redundants) done
Evaluating the initial hessian          ...  (Almloef) done
Evaluating the coordinates              ...  done
Calculating the B-matrix                .... done
Calculating the G-matrix                .... done
Diagonalizing the G-matrix              .... done
Small eigenvalue found = 2.780e-02
The first mode is                       ....    8
The number of degrees of freedom        ....   30

    -----------------------------------------------------------------
                    Redundant Internal Coordinates


    -----------------------------------------------------------------
         Definition                    Initial Value    Approx d2E/dq
    -----------------------------------------------------------------
      1. B(C   3,O   1)                  1.3625         0.619135   
      2. B(C   3,O   2)                  1.2236         1.031231   
      3. B(C   3,O   0)                  1.3625         0.619135   
      4. B(C   4,O   0)                  1.4314         0.480658   
      5. B(C   5,O   1)                  1.4313         0.480814   
      6. B(H   6,C   4)                  1.0942         0.354529   
      7. B(H   7,C   4)                  1.0932         0.355941   
      8. B(H   8,C   4)                  1.0942         0.354532   
      9. B(H   9,C   5)                  1.0933         0.355756   
     10. B(H  10,C   5)                  1.0943         0.354518   
     11. B(H  11,C   5)                  1.0941         0.354701   
     12. A(C   3,O   0,C   4)          115.5752         0.409306   
     13. A(C   3,O   1,C   5)          115.5733         0.409330   
     14. A(O   1,C   3,O   2)          125.9930         0.469716   
     15. A(O   0,C   3,O   1)          108.0046         0.428196   
     16. A(O   0,C   3,O   2)          126.0024         0.469716   
     17. A(O   0,C   4,H   7)          108.1223         0.335434   
     18. A(O   0,C   4,H   6)          110.2423         0.335213   
     19. A(H   6,C   4,H   8)          110.7151         0.289420   
     20. A(O   0,C   4,H   8)          110.2464         0.335213   
     21. A(H   7,C   4,H   8)          108.7269         0.289601   
     22. A(H   6,C   4,H   7)          108.7204         0.289600   
     23. A(H   9,C   5,H  10)          108.7209         0.289575   
     24. A(O   1,C   5,H  10)          110.2480         0.335229   
     25. A(O   1,C   5,H  11)          110.2521         0.335258   
     26. A(O   1,C   5,H   9)          108.1202         0.335423   
     27. A(H  10,C   5,H  11)          110.7150         0.289440   
     28. A(H   9,C   5,H  11)          108.7170         0.289599   
     29. D(O   2,C   3,O   1,C   5)     -0.0029         0.028118   
     30. D(O   0,C   3,O   1,C   5)    179.9532         0.028118   
     31. D(O   1,C   3,O   0,C   4)   -179.9532         0.028118   
     32. D(O   2,C   3,O   0,C   4)      0.0029         0.028118   
     33. D(H   7,C   4,O   0,C   3)    179.9981         0.018226   
     34. D(H   8,C   4,O   0,C   3)     61.2618         0.018226   
     35. D(H   6,C   4,O   0,C   3)    -61.2758         0.018226   
     36. D(H  11,C   5,O   1,C   3)    -61.2663         0.018238   
     37. D(H  10,C   5,O   1,C   3)     61.2788         0.018238   
     38. D(H   9,C   5,O   1,C   3)   -179.9926         0.018238   
    -----------------------------------------------------------------

Number of atoms                         .... 12
Number of degrees of freedom            .... 38


         *************************************************************
         *                GEOMETRY OPTIMIZATION CYCLE   1            *
         *************************************************************
---------------------------------
CARTESIAN COORDINATES (ANGSTROEM)
---------------------------------
  O     -1.102300   -0.698000    0.000200
  O      1.102300   -0.698000    0.000200
  O      0.000100    1.326400    0.000200
  C      0.000000    0.102800    0.000500
  C     -2.361100   -0.016600   -0.000600
  C      2.361000   -0.016600   -0.000600
  H     -2.459600    0.597800    0.899500
  H     -3.154700   -0.768400   -0.000800
  H     -2.458700    0.597500   -0.901000
  H      3.154700   -0.768500   -0.000900
  H      2.459600    0.597800    0.899500
  H      2.458700    0.597400   -0.900900

----------------------------
CARTESIAN COORDINATES (A.U.)
----------------------------
  NO LB      ZA    FRAG     MASS         X           Y           Z
   0 O     8.0000    0    15.999   -2.083045   -1.319029    0.000378
   1 O     8.0000    0    15.999    2.083045   -1.319029    0.000378
   2 O     8.0000    0    15.999    0.000189    2.506533    0.000378
   3 C     6.0000    0    12.011    0.000000    0.194264    0.000945
   4 C     6.0000    0    12.011   -4.461832   -0.031369   -0.001134
   5 C     6.0000    0    12.011    4.461643   -0.031369   -0.001134
   6 H     1.0000    0     1.008   -4.647970    1.129678    1.699809
   7 H     1.0000    0     1.008   -5.961519   -1.452066   -0.001512
   8 H     1.0000    0     1.008   -4.646270    1.129111   -1.702643
   9 H     1.0000    0     1.008    5.961519   -1.452255   -0.001701
  10 H     1.0000    0     1.008    4.647970    1.129678    1.699809
  11 H     1.0000    0     1.008    4.646270    1.128922   -1.702454

--------------------------------
INTERNAL COORDINATES (ANGSTROEM)
--------------------------------
 O      0   0   0     0.000000000000     0.00000000     0.00000000
 O      1   0   0     2.204600000000     0.00000000     0.00000000
 O      2   1   0     2.305003297178    61.43358104     0.00000000
 C      3   2   1     1.223600040863    28.57110468     0.02937314
 C      1   2   3     1.431392343140   151.57289318     0.06726827
 C      2   1   3     1.431304401586   151.57098757   359.93273173
 H      5   1   2     1.094243857648   110.24233489   298.66637734
 H      5   1   2     1.093162494783   108.12227189   179.94029331
 H      5   1   2     1.094241623226   110.24639625    61.20394637
 H      6   2   1     1.093303887307   108.12016858   180.06521880
 H      6   2   1     1.094252863830   110.24798296    61.33657054
 H      6   2   1     1.094112142333   110.25206353   298.79148767

---------------------------
INTERNAL COORDINATES (A.U.)
---------------------------
 O      0   0   0     0.000000000000     0.00000000     0.00000000
 O      1   0   0     4.166090234843     0.00000000     0.00000000
 O      2   1   0     4.355824969451    61.43358104     0.00000000
 C      3   2   1     2.312268974686    28.57110468     0.02937314
 C      1   2   3     2.704939518727   151.57289318     0.06726827
 C      2   1   3     2.704773333274   151.57098757   359.93273173
 H      5   1   2     2.067821214680   110.24233489   298.66637734
 H      5   1   2     2.065777735014   108.12227189   179.94029331
 H      5   1   2     2.067816992234   110.24639625    61.20394637
 H      6   2   1     2.066044928161   108.12016858   180.06521880
 H      6   2   1     2.067838233898   110.24798296    61.33657054
 H      6   2   1     2.067572308807   110.25206353   298.79148767

---------------------
BASIS SET INFORMATION
---------------------
There are 3 groups of distinct atoms

 Group   1 Type O   : 11s6p2d1f contracted to 5s3p2d1f pattern {62111/411/11/1}
 Group   2 Type C   : 11s6p2d1f contracted to 5s3p2d1f pattern {62111/411/11/1}
 Group   3 Type H   : 5s1p contracted to 3s1p pattern {311/1}

Atom   0O    basis set group =>   1
Atom   1O    basis set group =>   1
Atom   2O    basis set group =>   1
Atom   3C    basis set group =>   2
Atom   4C    basis set group =>   2
Atom   5C    basis set group =>   2
Atom   6H    basis set group =>   3
Atom   7H    basis set group =>   3
Atom   8H    basis set group =>   3
Atom   9H    basis set group =>   3
Atom  10H    basis set group =>   3
Atom  11H    basis set group =>   3
---------------------------------
AUXILIARY/J BASIS SET INFORMATION
---------------------------------
There are 3 groups of distinct atoms

 Group   1 Type O   : 12s5p4d2f1g contracted to 6s4p3d1f1g pattern {711111/2111/211/2/1}
 Group   2 Type C   : 12s5p4d2f1g contracted to 6s4p3d1f1g pattern {711111/2111/211/2/1}
 Group   3 Type H   : 5s2p1d contracted to 3s1p1d pattern {311/2/1}

Atom   0O    basis set group =>   1
Atom   1O    basis set group =>   1
Atom   2O    basis set group =>   1
Atom   3C    basis set group =>   2
Atom   4C    basis set group =>   2
Atom   5C    basis set group =>   2
Atom   6H    basis set group =>   3
Atom   7H    basis set group =>   3
Atom   8H    basis set group =>   3
Atom   9H    basis set group =>   3
Atom  10H    basis set group =>   3
Atom  11H    basis set group =>   3
--------------------------------------------------------------------------
By default, for Open MPI 4.0 and later, infiniband ports on a device
are not used by default.  The intent is to use UCX for these devices.
You can override this policy by setting the btl_openib_allow_ib MCA parameter
to true.

  Local host:              psid01
  Local adapter:           mlx5_0
  Local port:              1

--------------------------------------------------------------------------
--------------------------------------------------------------------------
WARNING: There was an error initializing an OpenFabrics device.

  Local host:   psid01
  Local device: mlx5_0
--------------------------------------------------------------------------


           ************************************************************
           *        Program running with 20 parallel MPI-processes    *
           *              working on a common directory               *
           ************************************************************
------------------------------------------------------------------------------
                             ORCA STARTUP CALCULATIONS
                           -- RI-GTO INTEGRALS CHOSEN --
------------------------------------------------------------------------------
------------------------------------------------------------------------------
                   ___                                                        
                  /   \      - P O W E R E D   B Y -                         
                 /     \                                                     
                 |  |  |   _    _      __       _____    __    __             
                 |  |  |  | |  | |    /  \     |  _  \  |  |  /  |          
                  \  \/   | |  | |   /    \    | | | |  |  | /  /          
                 / \  \   | |__| |  /  /\  \   | |_| |  |  |/  /          
                |  |  |   |  __  | /  /__\  \  |    /   |      \           
                |  |  |   | |  | | |   __   |  |    \   |  |\   \          
                \     /   | |  | | |  |  |  |  | |\  \  |  | \   \       
                 \___/    |_|  |_| |__|  |__|  |_| \__\ |__|  \__/        
                                                                              
                      - O R C A' S   B I G   F R I E N D -                    
                                      &                                       
                       - I N T E G R A L  F E E D E R -                       
                                                                              
 v1 FN, 2020, v2 2021, v3 2022-2024                                           
------------------------------------------------------------------------------


----------------------
SHARK INTEGRAL PACKAGE
----------------------

Number of atoms                             ...     12
Number of basis functions                   ...    222
Number of shells                            ...     90
Maximum angular momentum                    ...      3
Integral batch strategy                     ... SHARK/LIBINT Hybrid
RI-J (if used) integral strategy            ... SPLIT-RIJ (Revised 2003 algorithm where possible)
Printlevel                                  ...      1
Contraction scheme used                     ... SEGMENTED contraction
Prescreening option                         ... SCHWARTZ
   Thresh                                   ... 2.500e-11
   Tcut                                     ... 2.500e-12
   Tpresel                                  ... 2.500e-12 
Coulomb Range Separation                    ... NOT USED
Exchange Range Separation                   ... NOT USED
Multipole approximations                    ... NOT USED
Finite Nucleus Model                        ... NOT USED
CABS basis                                  ... NOT available
Auxiliary Coulomb fitting basis             ... AVAILABLE
   # of basis functions in Aux-J            ...    360
   # of shells in Aux-J                     ...    120
   Maximum angular momentum in Aux-J        ...      4
Auxiliary J/K fitting basis                 ... NOT available
Auxiliary Correlation fitting basis         ... NOT available
Auxiliary 'external' fitting basis          ... NOT available

Checking pre-screening integrals            ... done (  0.0 sec) Dimension = 90
Check shell pair data                       ... done (  0.0 sec)
Shell pair information
Shell pair cut-off parameter TPreSel        ...   2.5e-12
Total number of shell pairs                 ...      4095
Shell pairs after pre-screening             ...      3752
Total number of primitive shell pairs       ...     12396
Primitive shell pairs kept                  ...      8752
          la=0 lb=0:   1038 shell pairs
          la=1 lb=0:   1058 shell pairs
          la=1 lb=1:    282 shell pairs
          la=2 lb=0:    534 shell pairs
          la=2 lb=1:    274 shell pairs
          la=2 lb=2:     77 shell pairs
          la=3 lb=0:    262 shell pairs
          la=3 lb=1:    136 shell pairs
          la=3 lb=2:     70 shell pairs
          la=3 lb=3:     21 shell pairs

Calculating one electron integrals          ... done (  0.0 sec)
Calculating RI/J V-Matrix + Cholesky decomp.... done (  0.1 sec)
Calculating Nuclear repulsion               ... done (  0.0 sec) ENN=    249.064573115065 Eh

Diagonalization of the overlap matrix:
Smallest eigenvalue                        ... 9.750e-04
Time for diagonalization                   ...    0.005 sec
Threshold for overlap eigenvalues          ... 1.000e-07
Number of eigenvalues below threshold      ... 0
Time for construction of square roots      ...    0.003 sec
Total time needed                          ...    0.012 sec

-------------------
DFT GRID GENERATION
-------------------

General Integration Accuracy     IntAcc      ... 4.388
Radial Grid Type                 RadialGrid  ... OptM3 with GC (2021)
Angular Grid (max. ang.)         AngularGrid ... 4 (Lebedev-302)
Angular grid pruning method      GridPruning ... 4 (adaptive)
Weight generation scheme         WeightScheme... mBecke (2022)
Basis function cutoff            BFCut       ... 1.0000e-11
Integration weight cutoff        WCut        ... 1.0000e-14
Partially contracted basis set               ... off
Rotationally invariant grid construction     ... off
Angular grids for H and He will be reduced by one unit

Total number of grid points                  ...    55947
Total number of batches                      ...      880
Average number of points per batch           ...       63
Average number of grid points per atom       ...     4662

--------------------
COSX GRID GENERATION
--------------------

GRIDX 1
-------
General Integration Accuracy     IntAcc      ... 3.816
Radial Grid Type                 RadialGrid  ... OptM3 with GC (2021)
Angular Grid (max. ang.)         AngularGrid ... 1 (Lebedev-50)
Angular grid pruning method      GridPruning ... 4 (adaptive)
Weight generation scheme         WeightScheme... mBecke (2022)
Basis function cutoff            BFCut       ... 1.0000e-11
Integration weight cutoff        WCut        ... 1.0000e-14
Partially contracted basis set               ... on
Rotationally invariant grid construction     ... off
Angular grids for H and He will be reduced by one unit

Total number of grid points                  ...     7147
Total number of batches                      ...       63
Average number of points per batch           ...      113
Average number of grid points per atom       ...      596
UseSFitting                                  ... on

GRIDX 2
-------
General Integration Accuracy     IntAcc      ... 4.020
Radial Grid Type                 RadialGrid  ... OptM3 with GC (2021)
Angular Grid (max. ang.)         AngularGrid ... 2 (Lebedev-110)
Angular grid pruning method      GridPruning ... 4 (adaptive)
Weight generation scheme         WeightScheme... mBecke (2022)
Basis function cutoff            BFCut       ... 1.0000e-11
Integration weight cutoff        WCut        ... 1.0000e-14
Partially contracted basis set               ... on
Rotationally invariant grid construction     ... off
Angular grids for H and He will be reduced by one unit

Total number of grid points                  ...    15674
Total number of batches                      ...      128
Average number of points per batch           ...      122
Average number of grid points per atom       ...     1306
UseSFitting                                  ... on

GRIDX 3
-------
General Integration Accuracy     IntAcc      ... 4.338
Radial Grid Type                 RadialGrid  ... OptM3 with GC (2021)
Angular Grid (max. ang.)         AngularGrid ... 3 (Lebedev-194)
Angular grid pruning method      GridPruning ... 4 (adaptive)
Weight generation scheme         WeightScheme... mBecke (2022)
Basis function cutoff            BFCut       ... 1.0000e-11
Integration weight cutoff        WCut        ... 1.0000e-14
Partially contracted basis set               ... on
Rotationally invariant grid construction     ... off
Angular grids for H and He will be reduced by one unit

Total number of grid points                  ...    34551
Total number of batches                      ...      276
Average number of points per batch           ...      125
Average number of grid points per atom       ...     2879
UseSFitting                                  ... on
Initializing property integral containers    ... done (  0.0 sec)

SHARK setup successfully completed in   1.0 seconds

Maximum memory used throughout the entire STARTUP-calculation: 18.4 MB
[psid01:235759] 19 more processes have sent help message help-mpi-btl-openib.txt / ib port not selected
[psid01:235759] Set MCA parameter "orte_base_help_aggregate" to 0 to see all help / error messages
[psid01:235759] 19 more processes have sent help message help-mpi-btl-openib.txt / error in device init
--------------------------------------------------------------------------
By default, for Open MPI 4.0 and later, infiniband ports on a device
are not used by default.  The intent is to use UCX for these devices.
You can override this policy by setting the btl_openib_allow_ib MCA parameter
to true.

  Local host:              psid01
  Local adapter:           mlx5_0
  Local port:              1

--------------------------------------------------------------------------
--------------------------------------------------------------------------
WARNING: There was an error initializing an OpenFabrics device.

  Local host:   psid01
  Local device: mlx5_0
--------------------------------------------------------------------------


           ************************************************************
           *        Program running with 20 parallel MPI-processes    *
           *              working on a common directory               *
           ************************************************************
-------------------------------------------------------------------------------
                                 ORCA GUESS
                   Start orbitals & Density for SCF / CASSCF
-------------------------------------------------------------------------------

------------
SCF SETTINGS
------------
Hamiltonian:
 Density Functional     Method          .... DFT(GTOs)
 Exchange Functional    Exchange        .... B88
   X-Alpha parameter    XAlpha          ....  0.666667
   Becke's b parameter  XBeta           ....  0.004200
 Correlation Functional Correlation     .... LYP
 LDA part of GGA corr.  LDAOpt          .... VWN-5
 Gradients option       PostSCFGGA      .... off
 Hybrid DFT is turned on
   Fraction HF Exchange ScalHFX         ....  0.200000
   Scaling of DF-GGA-X  ScalDFX         ....  0.720000
   Scaling of DF-GGA-C  ScalDFC         ....  0.810000
   Scaling of DF-LDA-C  ScalLDAC        ....  1.000000
   Perturbative correction              ....  0.000000
   NL short-range parameter             ....  4.800000
 RI-approximation to the Coulomb term is turned on
   Number of AuxJ basis functions       .... 360
   RIJ-COSX (HFX calculated with COS-X)).... on


General Settings:
 Integral files         IntName         .... DMC
 Hartree-Fock type      HFTyp           .... RHF
 Total Charge           Charge          ....    0
 Multiplicity           Mult            ....    1
 Number of Electrons    NEL             ....   48
 Basis Dimension        Dim             ....  222
 Nuclear Repulsion      ENuc            ....    249.0645731151 Eh

Convergence Acceleration:
 AO-DIIS                CNVDIIS         .... on
   Start iteration      DIISMaxIt       ....    12
   Startup error        DIISStart       ....  0.200000
   # of expansion vecs  DIISMaxEq       ....     5
   Bias factor          DIISBfac        ....   1.050
   Max. coefficient     DIISMaxC        ....  10.000
 MO-DIIS                CNVKDIIS        .... off
 Trust-Rad. Augm. Hess. CNVTRAH         .... auto
   Auto Start mean grad. ratio tolernc. ....  1.125000
   Auto Start start iteration           ....    50
   Auto Start num. interpolation iter.  ....    10
   Max. Number of Micro iterations      ....    24
   Max. Number of Macro iterations      .... Maxiter - #DIIS iter
   Number of Davidson start vectors     ....     2
   Converg. threshold    (grad. norm)   ....   1.000e-05
   Grad. Scal. Fac. for Micro threshold ....   0.100
   Minimum threshold for Micro iter.    ....   1.000e-02
   NR start threshold (gradient norm)   ....   1.000e-04
   Initial trust radius                 ....   0.400
   Minimum AH scaling param. (alpha)    ....   1.000
   Maximum AH scaling param. (alpha)    .... 1000.000
   Quad. conv. algorithm                .... NR
   White noise on init. David. guess    .... on
   Maximum white noise                  ....   0.010
   Pseudo random numbers                .... off
   Inactive MOs                         .... canonical
   Orbital update algorithm             .... Taylor
   Preconditioner                       .... Diag
   Full preconditioner red. dimension   ....   250
 SOSCF                  CNVSOSCF        .... on
   Start iteration      SOSCFMaxIt      ....   150
   Startup grad/error   SOSCFStart      ....  0.003300
   Hessian update       SOSCFHessUp     .... L-BFGS
 Level Shifting         CNVShift        .... on
   Level shift para.    LevelShift      ....    0.2500
   Turn off err/grad.   ShiftErr        ....    0.0010
 Zerner damping         CNVZerner       .... off
 Static damping         CNVDamp         .... on
   Fraction old density DampFac         ....    0.7000
   Max. Damping (<1)    DampMax         ....    0.9800
   Min. Damping (>=0)   DampMin         ....    0.0000
   Turn off err/grad.   DampErr         ....    0.1000

SCF Procedure:
 Maximum # iterations   MaxIter         ....   125
 SCF integral mode      SCFMode         .... Direct
   Integral package                     .... SHARK and LIBINT hybrid scheme
 Reset frequency        DirectResetFreq ....    20
 Integral Threshold     Thresh          ....  2.500e-11 Eh
 Primitive CutOff       TCut            ....  2.500e-12 Eh

Convergence Tolerance:
 Convergence Check Mode ConvCheckMode   .... Total+1el-Energy
 Convergence forced     ConvForced      .... 0
 Energy Change          TolE            ....  1.000e-08 Eh
 1-El. energy change                    ....  1.000e-05 Eh
 Orbital Gradient       TolG            ....  1.000e-05
 Orbital Rotation angle TolX            ....  1.000e-05
 DIIS Error             TolErr          ....  5.000e-07

------------------------------
INITIAL GUESS: MODEL POTENTIAL
------------------------------
Loading Hartree-Fock densities                     ... done
Calculating cut-offs                               ... done
Initializing the effective Hamiltonian             ... done
Setting up the integral package (SHARK)            ... done
Starting the Coulomb interaction                   ... done (   0.0 sec)
Making the grid                                    ... done (   0.1 sec)
Mapping shells                                     ... done
Starting the XC term evaluation                    ... done (   0.0 sec)
  promolecular density results
     # of electrons  =     47.996079255
     EX              =    -41.776771973
     EC              =     -1.654879723
     EX+EC           =    -43.431651696
Transforming the Hamiltonian                       ... done (   0.0 sec)
Diagonalizing the Hamiltonian                      ... done (   0.0 sec)
Back transforming the eigenvectors                 ... done (   0.0 sec)
Now organizing SCF variables                       ... done
                      ------------------
                      INITIAL GUESS DONE (   0.2 sec)
                      ------------------
             **** ENERGY FILE WAS UPDATED (DMC.en.tmp) ****
Finished Guess after   0.7 sec
Maximum memory used throughout the entire GUESS-calculation: 12.3 MB
[psid01:235836] 19 more processes have sent help message help-mpi-btl-openib.txt / ib port not selected
[psid01:235836] Set MCA parameter "orte_base_help_aggregate" to 0 to see all help / error messages
[psid01:235836] 19 more processes have sent help message help-mpi-btl-openib.txt / error in device init
--------------------------------------------------------------------------
By default, for Open MPI 4.0 and later, infiniband ports on a device
are not used by default.  The intent is to use UCX for these devices.
You can override this policy by setting the btl_openib_allow_ib MCA parameter
to true.

  Local host:              psid01
  Local adapter:           mlx5_0
  Local port:              1

--------------------------------------------------------------------------
--------------------------------------------------------------------------
WARNING: There was an error initializing an OpenFabrics device.

  Local host:   psid01
  Local device: mlx5_0
--------------------------------------------------------------------------
[psid01:235902] [[46828,0],0] ORTE_ERROR_LOG: Out of resource in file util/show_help.c at line 507


           ************************************************************
           *        Program running with 20 parallel MPI-processes    *
           *              working on a common directory               *
           ************************************************************

-------------------------------------------------------------------------------------------
                                      ORCA LEAN-SCF
                              memory conserving SCF solver
-------------------------------------------------------------------------------------------

----------------------------------------D-I-I-S--------------------------------------------
Iteration    Energy (Eh)           Delta-E    RMSDP     MaxDP     DIISErr   Damp  Time(sec)
-------------------------------------------------------------------------------------------
               ***  Starting incremental Fock matrix formation  ***
    1    -343.3587340144238169     0.00e+00  1.55e-03  6.24e-02  3.18e-01  0.700   0.5
    2    -343.4651794914796028    -1.06e-01  9.46e-04  3.40e-02  1.18e-01  0.700   0.3
                               ***Turning on AO-DIIS***
    3    -343.5002357049495458    -3.51e-02  3.63e-04  6.63e-03  3.02e-02  0.700   0.3
    4    -343.5235093805374618    -2.33e-02  5.30e-04  1.27e-02  1.30e-02  0.000   0.3
    5    -343.5766704795855730    -5.32e-02  1.54e-04  2.63e-03  5.80e-03  0.000   0.3
                              *** Initializing SOSCF ***
---------------------------------------S-O-S-C-F--------------------------------------
Iteration    Energy (Eh)           Delta-E    RMSDP     MaxDP     MaxGrad    Time(sec)
--------------------------------------------------------------------------------------
    6    -343.5768782410852964    -2.08e-04  5.70e-05  1.06e-03  2.30e-03     0.3
               *** Restarting incremental Fock matrix formation ***
    7    -343.5769069170005423    -2.87e-05  4.51e-05  1.35e-03  6.41e-04     0.4
    8    -343.5768937221521355     1.32e-05  2.42e-05  9.68e-04  1.59e-03     0.3
    9    -343.5769116775052225    -1.80e-05  4.51e-06  1.81e-04  9.03e-05     0.3
   10    -343.5769115122818675     1.65e-07  2.76e-06  9.61e-05  1.41e-04     0.3
   11    -343.5769117805492670    -2.68e-07  3.58e-07  8.52e-06  3.56e-06     0.3
   12    -343.5769117783903539     2.16e-09  1.65e-07  4.66e-06  3.84e-06     0.3
                 **** Energy Check signals convergence ****

               *****************************************************
               *                     SUCCESS                       *
               *           SCF CONVERGED AFTER  12 CYCLES          *
               *****************************************************

Recomputing exchange energy using gridx3       ... done (    0.430 sec)
Old exchange energy                            :     -8.464168306 Eh
New exchange energy                            :     -8.464148136 Eh
Exchange energy change after final integration :      0.000020170 Eh
Total energy after final integration           :   -343.576891608 Eh
             **** ENERGY FILE WAS UPDATED (DMC.en.tmp) ****

----------------
TOTAL SCF ENERGY
----------------

Total Energy       :       -343.57689160805279 Eh           -9349.20252 eV

Components:
Nuclear Repulsion  :        249.06457311506492 Eh            6777.39159 eV
Electronic Energy  :       -592.64148489345530 Eh          -16126.59466 eV
One Electron Energy:       -962.70151506122238 Eh          -26196.44003 eV
Two Electron Energy:        370.06003016776708 Eh           10069.84536 eV

Virial components:
Potential Energy   :       -685.52054493515811 Eh          -18653.96238 eV
Kinetic Energy     :        341.94365332710538 Eh            9304.75985 eV
Virial Ratio       :          2.00477633746103

DFT components:
N(Alpha)           :       24.000023513180 electrons
N(Beta)            :       24.000023513180 electrons
N(Total)           :       48.000047026360 electrons
E(X)               :      -33.700356471627 Eh       
E(C)               :       -1.952692587458 Eh       
E(XC)              :      -35.653049059085 Eh       

---------------
SCF CONVERGENCE
---------------

  Last Energy change         ...   -2.1589e-09  Tolerance :   1.0000e-08
  Last MAX-Density change    ...    4.6556e-06  Tolerance :   1.0000e-07
  Last RMS-Density change    ...    1.6481e-07  Tolerance :   5.0000e-09
  Last DIIS Error            ...    2.3000e-03  Tolerance :   5.0000e-07
  Last Orbital Gradient      ...    3.8350e-06  Tolerance :   1.0000e-05
  Last Orbital Rotation      ...    3.1605e-06  Tolerance :   1.0000e-05


----------------
ORBITAL ENERGIES
----------------

  NO   OCC          E(Eh)            E(eV) 
   0   2.0000     -19.179370      -521.8972 
   1   2.0000     -19.179356      -521.8968 
   2   2.0000     -19.118076      -520.2293 
   3   2.0000     -10.350251      -281.6447 
   4   2.0000     -10.230332      -278.3815 
   5   2.0000     -10.230315      -278.3810 
   6   2.0000      -1.134975       -30.8842 
   7   2.0000      -1.056028       -28.7360 
   8   2.0000      -1.018046       -27.7024 
   9   2.0000      -0.757483       -20.6121 
  10   2.0000      -0.697667       -18.9845 
  11   2.0000      -0.583953       -15.8902 
  12   2.0000      -0.545250       -14.8370 
  13   2.0000      -0.507530       -13.8106 
  14   2.0000      -0.494570       -13.4579 
  15   2.0000      -0.465167       -12.6578 
  16   2.0000      -0.447911       -12.1883 
  17   2.0000      -0.442088       -12.0298 
  18   2.0000      -0.404228       -10.9996 
  19   2.0000      -0.377808       -10.2807 
  20   2.0000      -0.361403        -9.8343 
  21   2.0000      -0.315315        -8.5802 
  22   2.0000      -0.312111        -8.4930 
  23   2.0000      -0.296844        -8.0775 
  24   0.0000       0.021189         0.5766 
  25   0.0000       0.037835         1.0295 
  26   0.0000       0.058817         1.6005 
  27   0.0000       0.059393         1.6162 
  28   0.0000       0.100776         2.7422 
  29   0.0000       0.101686         2.7670 
  30   0.0000       0.110944         3.0189 
  31   0.0000       0.119338         3.2473 
  32   0.0000       0.123043         3.3482 
  33   0.0000       0.180377         4.9083 
  34   0.0000       0.192521         5.2388 
*Only the first 10 virtual orbitals were printed.

                    ********************************
                    * MULLIKEN POPULATION ANALYSIS *
                    ********************************

-----------------------
MULLIKEN ATOMIC CHARGES
-----------------------
   0 O :   -0.264343
   1 O :   -0.264333
   2 O :   -0.368944
   3 C :    0.455986
   4 C :   -0.157228
   5 C :   -0.157227
   6 H :    0.124781
   7 H :    0.128507
   8 H :    0.124775
   9 H :    0.128483
  10 H :    0.124769
  11 H :    0.124773
Sum of atomic charges:   -0.0000000

--------------------------------
MULLIKEN REDUCED ORBITAL CHARGES
--------------------------------
  0 O s       :     3.769744  s :     3.769744
      pz      :     1.731521  p :     4.453363
      px      :     1.166064
      py      :     1.555778
      dz2     :     0.004676  d :     0.039164
      dxz     :     0.005920
      dyz     :     0.004389
      dx2y2   :     0.007263
      dxy     :     0.016915
      f0      :     0.000274  f :     0.002072
      f+1     :     0.000398
      f-1     :     0.000173
      f+2     :     0.000073
      f-2     :     0.000255
      f+3     :     0.000409
      f-3     :     0.000490

  1 O s       :     3.769733  s :     3.769733
      pz      :     1.731512  p :     4.453359
      px      :     1.166060
      py      :     1.555787
      dz2     :     0.004677  d :     0.039170
      dxz     :     0.005921
      dyz     :     0.004390
      dx2y2   :     0.007265
      dxy     :     0.016917
      f0      :     0.000274  f :     0.002072
      f+1     :     0.000398
      f-1     :     0.000173
      f+2     :     0.000073
      f-2     :     0.000255
      f+3     :     0.000409
      f-3     :     0.000490

  2 O s       :     3.825928  s :     3.825928
      pz      :     1.459411  p :     4.512021
      px      :     1.756305
      py      :     1.296306
      dz2     :     0.002665  d :     0.029220
      dxz     :     0.000097
      dyz     :     0.010524
      dx2y2   :     0.008477
      dxy     :     0.007457
      f0      :     0.000197  f :     0.001775
      f+1     :     0.000025
      f-1     :     0.000182
      f+2     :     0.000429
      f-2     :     0.000013
      f+3     :     0.000517
      f-3     :     0.000412

  3 C s       :     2.996355  s :     2.996355
      pz      :     0.800343  p :     2.220452
      px      :     0.683062
      py      :     0.737047
      dz2     :     0.009735  d :     0.296844
      dxz     :     0.046264
      dyz     :     0.073780
      dx2y2   :     0.061932
      dxy     :     0.105132
      f0      :     0.003409  f :     0.030364
      f+1     :     0.001347
      f-1     :     0.001712
      f+2     :     0.002932
      f-2     :     0.004357
      f+3     :     0.011576
      f-3     :     0.005031

  4 C s       :     3.254453  s :     3.254453
      pz      :     1.081657  p :     2.814920
      px      :     0.755322
      py      :     0.977941
      dz2     :     0.006321  d :     0.080243
      dxz     :     0.022176
      dyz     :     0.015602
      dx2y2   :     0.014702
      dxy     :     0.021443
      f0      :     0.000956  f :     0.007613
      f+1     :     0.000436
      f-1     :     0.001439
      f+2     :     0.000567
      f-2     :     0.000898
      f+3     :     0.001829
      f-3     :     0.001488

  5 C s       :     3.254423  s :     3.254423
      pz      :     1.081656  p :     2.814933
      px      :     0.755337
      py      :     0.977940
      dz2     :     0.006320  d :     0.080257
      dxz     :     0.022180
      dyz     :     0.015604
      dx2y2   :     0.014704
      dxy     :     0.021449
      f0      :     0.000956  f :     0.007615
      f+1     :     0.000436
      f-1     :     0.001440
      f+2     :     0.000567
      f-2     :     0.000898
      f+3     :     0.001830
      f-3     :     0.001489

  6 H s       :     0.854809  s :     0.854809
      pz      :     0.010149  p :     0.020410
      px      :     0.003172
      py      :     0.007088

  7 H s       :     0.851079  s :     0.851079
      pz      :     0.004438  p :     0.020414
      px      :     0.008306
      py      :     0.007670

  8 H s       :     0.854815  s :     0.854815
      pz      :     0.010155  p :     0.020410
      px      :     0.003170
      py      :     0.007086

  9 H s       :     0.851107  s :     0.851107
      pz      :     0.004437  p :     0.020410
      px      :     0.008305
      py      :     0.007669

 10 H s       :     0.854821  s :     0.854821
      pz      :     0.010149  p :     0.020410
      px      :     0.003172
      py      :     0.007088

 11 H s       :     0.854813  s :     0.854813
      pz      :     0.010155  p :     0.020414
      px      :     0.003171
      py      :     0.007087



                     *******************************
                     * LOEWDIN POPULATION ANALYSIS *
                     *******************************

----------------------
LOEWDIN ATOMIC CHARGES
----------------------
   0 O :    0.222454
   1 O :    0.222492
   2 O :    0.062867
   3 C :   -0.575852
   4 C :   -0.302884
   5 C :   -0.302960
   6 H :    0.111688
   7 H :    0.113570
   8 H :    0.111686
   9 H :    0.113603
  10 H :    0.111686
  11 H :    0.111650

-------------------------------
LOEWDIN REDUCED ORBITAL CHARGES
-------------------------------
  0 O s       :     3.270755  s :     3.270755
      pz      :     1.601753  p :     4.396152
      px      :     1.245780
      py      :     1.548619
      dz2     :     0.011050  d :     0.104093
      dxz     :     0.017759
      dyz     :     0.006967
      dx2y2   :     0.025008
      dxy     :     0.043309
      f0      :     0.000603  f :     0.006545
      f+1     :     0.000910
      f-1     :     0.000311
      f+2     :     0.000173
      f-2     :     0.000980
      f+3     :     0.002062
      f-3     :     0.001506

  1 O s       :     3.270713  s :     3.270713
      pz      :     1.601729  p :     4.396139
      px      :     1.245789
      py      :     1.548620
      dz2     :     0.011050  d :     0.104111
      dxz     :     0.017763
      dyz     :     0.006969
      dx2y2   :     0.025013
      dxy     :     0.043315
      f0      :     0.000603  f :     0.006546
      f+1     :     0.000910
      f-1     :     0.000311
      f+2     :     0.000173
      f-2     :     0.000980
      f+3     :     0.002063
      f-3     :     0.001507

  2 O s       :     3.417409  s :     3.417409
      pz      :     1.372286  p :     4.448852
      px      :     1.605839
      py      :     1.470726
      dz2     :     0.008540  d :     0.064888
      dxz     :     0.000112
      dyz     :     0.014932
      dx2y2   :     0.026795
      dxy     :     0.014509
      f0      :     0.000469  f :     0.005984
      f+1     :     0.000087
      f-1     :     0.001009
      f+2     :     0.000874
      f-2     :     0.000056
      f+3     :     0.001546
      f-3     :     0.001943

  3 C s       :     2.745723  s :     2.745723
      pz      :     0.782560  p :     2.601234
      px      :     0.842586
      py      :     0.976089
      dz2     :     0.074366  d :     1.046503
      dxz     :     0.121401
      dyz     :     0.201384
      dx2y2   :     0.250713
      dxy     :     0.398640
      f0      :     0.010231  f :     0.182391
      f+1     :     0.010153
      f-1     :     0.013730
      f+2     :     0.020839
      f-2     :     0.024635
      f+3     :     0.072057
      f-3     :     0.030747

  4 C s       :     2.867104  s :     2.867104
      pz      :     1.113849  p :     3.016256
      px      :     0.852348
      py      :     1.050059
      dz2     :     0.049655  d :     0.366136
      dxz     :     0.061574
      dyz     :     0.075762
      dx2y2   :     0.060854
      dxy     :     0.118292
      f0      :     0.005730  f :     0.053387
      f+1     :     0.006735
      f-1     :     0.004735
      f+2     :     0.006592
      f-2     :     0.005194
      f+3     :     0.012619
      f-3     :     0.011783

  5 C s       :     2.867078  s :     2.867078
      pz      :     1.113850  p :     3.016275
      px      :     0.852368
      py      :     1.050057
      dz2     :     0.049660  d :     0.366205
      dxz     :     0.061593
      dyz     :     0.075773
      dx2y2   :     0.060863
      dxy     :     0.118316
      f0      :     0.005732  f :     0.053401
      f+1     :     0.006736
      f-1     :     0.004736
      f+2     :     0.006592
      f-2     :     0.005196
      f+3     :     0.012624
      f-3     :     0.011784

  6 H s       :     0.827206  s :     0.827206
      pz      :     0.030654  p :     0.061106
      px      :     0.009308
      py      :     0.021144

  7 H s       :     0.826623  s :     0.826623
      pz      :     0.013556  p :     0.059807
      px      :     0.022552
      py      :     0.023699

  8 H s       :     0.827207  s :     0.827207
      pz      :     0.030668  p :     0.061107
      px      :     0.009302
      py      :     0.021136

  9 H s       :     0.826615  s :     0.826615
      pz      :     0.013548  p :     0.059782
      px      :     0.022543
      py      :     0.023691

 10 H s       :     0.827210  s :     0.827210
      pz      :     0.030653  p :     0.061104
      px      :     0.009308
      py      :     0.021144

 11 H s       :     0.827223  s :     0.827223
      pz      :     0.030675  p :     0.061127
      px      :     0.009308
      py      :     0.021143



                      *****************************
                      * MAYER POPULATION ANALYSIS *
                      *****************************

  NA   - Mulliken gross atomic population
  ZA   - Total nuclear charge
  QA   - Mulliken gross atomic charge
  VA   - Mayer's total valence
  BVA  - Mayer's bonded valence
  FA   - Mayer's free valence

  ATOM       NA         ZA         QA         VA         BVA        FA
  0 O      8.2643     8.0000    -0.2643     2.1045     2.1045     0.0000
  1 O      8.2643     8.0000    -0.2643     2.1045     2.1045    -0.0000
  2 O      8.3689     8.0000    -0.3689     2.1158     2.1158     0.0000
  3 C      5.5440     6.0000     0.4560     4.3657     4.3657    -0.0000
  4 C      6.1572     6.0000    -0.1572     3.8594     3.8594     0.0000
  5 C      6.1572     6.0000    -0.1572     3.8595     3.8595    -0.0000
  6 H      0.8752     1.0000     0.1248     0.9678     0.9678    -0.0000
  7 H      0.8715     1.0000     0.1285     0.9581     0.9581     0.0000
  8 H      0.8752     1.0000     0.1248     0.9678     0.9678     0.0000
  9 H      0.8715     1.0000     0.1285     0.9581     0.9581    -0.0000
 10 H      0.8752     1.0000     0.1248     0.9678     0.9678    -0.0000
 11 H      0.8752     1.0000     0.1248     0.9678     0.9678    -0.0000

  Mayer bond orders larger than 0.100000
B(  0-O ,  3-C ) :   1.1930 B(  0-O ,  4-C ) :   0.8992 B(  1-O ,  3-C ) :   1.1930 
B(  1-O ,  5-C ) :   0.8992 B(  2-O ,  3-C ) :   1.9410 B(  4-C ,  6-H ) :   0.9741 
B(  4-C ,  7-H ) :   0.9637 B(  4-C ,  8-H ) :   0.9741 B(  5-C ,  9-H ) :   0.9637 
B(  5-C , 10-H ) :   0.9741 B(  5-C , 11-H ) :   0.9741 

-------
TIMINGS
-------

Total SCF time: 0 days 0 hours 0 min 5 sec 

Total time                  ....       5.291 sec
Sum of individual times     ....       5.182 sec  ( 97.9%)

SCF preparation             ....       0.619 sec  ( 11.7%)
Fock matrix formation       ....       4.029 sec  ( 76.1%)
  Startup                   ....       0.064 sec  (  1.6% of F)
  Split-RI-J                ....       0.406 sec  ( 10.1% of F)
  Chain of spheres X        ....       2.475 sec  ( 61.4% of F)
  XC integration            ....       0.924 sec  ( 22.9% of F)
    XC Preparation          ....       0.000 sec  (  0.0% of XC)
    Basis function eval.    ....       0.143 sec  ( 15.5% of XC)
    Density eval.           ....       0.087 sec  (  9.4% of XC)
    XC-Functional eval.     ....       0.032 sec  (  3.4% of XC)
    XC-Potential eval.      ....       0.179 sec  ( 19.4% of XC)
Diagonalization             ....       0.000 sec  (  0.0%)
Density matrix formation    ....       0.131 sec  (  2.5%)
Total Energy calculation    ....       0.048 sec  (  0.9%)
Population analysis         ....       0.026 sec  (  0.5%)
Orbital Transformation      ....       0.033 sec  (  0.6%)
Orbital Orthonormalization  ....       0.000 sec  (  0.0%)
DIIS solution               ....       0.189 sec  (  3.6%)
SOSCF solution              ....       0.107 sec  (  2.0%)
Finished LeanSCF after   5.3 sec

Maximum memory used throughout the entire LEANSCF-calculation: 19.4 MB
[psid01:235902] 18 more processes have sent help message help-mpi-btl-openib.txt / ib port not selected
[psid01:235902] Set MCA parameter "orte_base_help_aggregate" to 0 to see all help / error messages
[psid01:235902] 19 more processes have sent help message help-mpi-btl-openib.txt / error in device init

-------------------------   --------------------
FINAL SINGLE POINT ENERGY      -343.576891608053
-------------------------   --------------------

--------------------------------------------------------------------------
By default, for Open MPI 4.0 and later, infiniband ports on a device
are not used by default.  The intent is to use UCX for these devices.
You can override this policy by setting the btl_openib_allow_ib MCA parameter
to true.

  Local host:              psid01
  Local adapter:           mlx5_0
  Local port:              1

--------------------------------------------------------------------------
--------------------------------------------------------------------------
WARNING: There was an error initializing an OpenFabrics device.

  Local host:   psid01
  Local device: mlx5_0
--------------------------------------------------------------------------


           ************************************************************
           *        Program running with 20 parallel MPI-processes    *
           *              working on a common directory               *
           ************************************************************
------------------------------------------------------------------------------
                         ORCA SCF GRADIENT CALCULATION
------------------------------------------------------------------------------

Nuc. rep. gradient        (SHARK) ... done (  0.0 sec)
HCore & Overlap gradient  (SHARK) ... done (  0.0 sec)
Split-RIJ-J gradient      (SHARK) ... done (  0.4 sec)
COSX-gradient                     ... done (  1.5 sec)
XC gradient                       ... done (  0.2 sec)

------------------
CARTESIAN GRADIENT
------------------

   1   O   :   -0.018904011   -0.006422706   -0.000026804
   2   O   :    0.018939659   -0.006396092   -0.000027153
   3   O   :    0.000021275    0.034856601   -0.000047203
   4   C   :   -0.000011211   -0.011756644    0.000135049
   5   C   :    0.004993091   -0.005419748   -0.000023562
   6   C   :   -0.005106025   -0.005323175   -0.000079038
   7   H   :   -0.000648512   -0.000857629    0.003922168
   8   H   :   -0.006975997    0.001991875    0.000002134
   9   H   :   -0.000649928   -0.000851252   -0.003918058
  10   H   :    0.007034685    0.001931525   -0.000010517
  11   H   :    0.000652113   -0.000850248    0.003923651
  12   H   :    0.000654861   -0.000902506   -0.003850666

Difference to translation invariance:
           :   -0.0000000000   -0.0000000000    0.0000000000

Difference to rotation invariance:
           :    0.0000008133    0.0000002148   -0.0000003267

Norm of the Cartesian gradient     ...    0.0493120485
RMS gradient                       ...    0.0082186747
MAX gradient                       ...    0.0348566014

-------
TIMINGS
-------

Total SCF gradient time     ....        2.071 sec

Densities                   ....       0.001 sec  (  0.0%)
One electron gradient       ....       0.017 sec  (  0.8%)
RI-J Coulomb gradient       ....       0.360 sec  ( 17.4%)
COSX gradient               ....       1.481 sec  ( 71.5%)
XC gradient                 ....       0.211 sec  ( 10.2%)

Maximum memory used throughout the entire SCFGRAD-calculation: 24.5 MB
[psid01:235973] 19 more processes have sent help message help-mpi-btl-openib.txt / ib port not selected
[psid01:235973] Set MCA parameter "orte_base_help_aggregate" to 0 to see all help / error messages
[psid01:235973] 19 more processes have sent help message help-mpi-btl-openib.txt / error in device init
------------------------------------------------------------------------------
                         ORCA GEOMETRY RELAXATION STEP
------------------------------------------------------------------------------

Reading the OPT-File                    .... done
Getting information on internals        .... done
Copying old internal coords+grads       .... done
Making the new internal coordinates     .... (2022 redundants) done
Validating the new internal coordinates .... (2022 redundants) done
Calculating the B-matrix                .... done
Calculating the G,G- and P matrices     .... done
Transforming gradient to internals      .... done
Projecting the internal gradient        .... done
Number of atoms                         ....  12
Number of internal coordinates          ....  38
Current Energy                          ....  -343.576891608 Eh
Current gradient norm                   ....     0.049312048 Eh/bohr
Maximum allowed component of the step   ....  0.300
Current trust radius                    ....  0.300
Evaluating the initial hessian          ....  (Almloef) done
Projecting the Hessian                  .... done
Forming the augmented Hessian           .... done
Diagonalizing the augmented Hessian     .... done
Last element of RFO vector              ....  0.996215894
Lowest eigenvalues of augmented Hessian:
 -0.004258417  0.018226425  0.018238462  0.028118084  0.028118088
Length of the computed step             ....  0.087243268
The final length of the internal step   ....  0.087243268
Converting the step to Cartesian space:
 Initial RMS(Int)=    0.0141527269
Transforming coordinates:
 Iter   0:  RMS(Cart)=    0.0331733010 RMS(Int)=    1.4411115255
done
Storing new coordinates                 .... done

                                .--------------------.
          ----------------------|Geometry convergence|-------------------------
          Item                value                   Tolerance       Converged
          ---------------------------------------------------------------------
          RMS gradient        0.0086207533            0.0000300000      NO
          MAX gradient        0.0348566136            0.0001000000      NO
          RMS step            0.0141527269            0.0006000000      NO
          MAX step            0.0396908170            0.0010000000      NO
          ........................................................
          Max(Bonds)      0.0210      Max(Angles)    1.55
          Max(Dihed)        0.14      Max(Improp)    0.00
          ---------------------------------------------------------------------

The optimization has not yet converged - more geometry cycles are needed


    ---------------------------------------------------------------------------
                         Redundant Internal Coordinates
                            (Angstroem and degrees)

        Definition                    Value    dE/dq     Step     New-Value
    ----------------------------------------------------------------------------
     1. B(C   3,O   1)                1.3625  0.024724 -0.0210    1.3415   
     2. B(C   3,O   2)                1.2236  0.034857 -0.0178    1.2058   
     3. B(C   3,O   0)                1.3625  0.024743 -0.0210    1.3415   
     4. B(C   4,O   0)                1.4314  0.000440 -0.0005    1.4309   
     5. B(C   5,O   1)                1.4313  0.000396 -0.0004    1.4309   
     6. B(H   6,C   4)                1.0942  0.002803 -0.0041    1.0901   
     7. B(H   7,C   4)                1.0932  0.003694 -0.0054    1.0877   
     8. B(H   8,C   4)                1.0942  0.002804 -0.0041    1.0901   
     9. B(H   9,C   5)                1.0933  0.003779 -0.0056    1.0877   
    10. B(H  10,C   5)                1.0943  0.002809 -0.0041    1.0901   
    11. B(H  11,C   5)                1.0941  0.002721 -0.0040    1.0901   
    12. A(C   3,O   0,C   4)          115.58  0.005370   -0.74    114.83   
    13. A(C   3,O   1,C   5)          115.57  0.005352   -0.74    114.83   
    14. A(O   1,C   3,O   2)          125.99 -0.001403    0.18    126.17   
    15. A(O   0,C   3,O   1)          108.00  0.002763   -0.35    107.65   
    16. A(O   0,C   3,O   2)          126.00 -0.001360    0.17    126.18   
    17. A(O   0,C   4,H   7)          108.12  0.009188   -1.55    106.57   
    18. A(O   0,C   4,H   6)          110.24 -0.002140    0.33    110.58   
    19. A(H   6,C   4,H   8)          110.72  0.002670   -0.57    110.14   
    20. A(O   0,C   4,H   8)          110.25 -0.002120    0.33    110.58   
    21. A(H   7,C   4,H   8)          108.73 -0.003742    0.72    109.45   
    22. A(H   6,C   4,H   7)          108.72 -0.003748    0.73    109.45   
    23. A(H   9,C   5,H  10)          108.72 -0.003743    0.73    109.45   
    24. A(O   1,C   5,H  10)          110.25 -0.002130    0.33    110.58   
    25. A(O   1,C   5,H  11)          110.25 -0.002109    0.33    110.58   
    26. A(O   1,C   5,H   9)          108.12  0.009178   -1.55    106.57   
    27. A(H  10,C   5,H  11)          110.71  0.002666   -0.57    110.14   
    28. A(H   9,C   5,H  11)          108.72 -0.003756    0.73    109.44   
    29. D(O   2,C   3,O   1,C   5)     -0.00  0.000036   -0.06     -0.07   
    30. D(O   0,C   3,O   1,C   5)    179.95 -0.000059    0.10    180.06   
    31. D(O   1,C   3,O   0,C   4)   -179.95  0.000059   -0.10   -180.06   
    32. D(O   2,C   3,O   0,C   4)      0.00 -0.000036    0.06      0.07   
    33. D(H   7,C   4,O   0,C   3)    180.00  0.000007   -0.00    180.00   
    34. D(H   8,C   4,O   0,C   3)     61.26  0.000247   -0.14     61.12   
    35. D(H   6,C   4,O   0,C   3)    -61.28 -0.000253    0.14    -61.14   
    36. D(H  11,C   5,O   1,C   3)    -61.27 -0.000255    0.14    -61.13   
    37. D(H  10,C   5,O   1,C   3)     61.28  0.000253   -0.14     61.14   
    38. D(H   9,C   5,O   1,C   3)   -179.99  0.000001   -0.00   -179.99   
    ----------------------------------------------------------------------------

Geometry step timings:
Preparation and reading OPT file:      0.000 s (13.718 %)
Internal coordinates            :      0.000 s ( 0.658 %)
B/P matrices and projection     :      0.000 s (11.088 %)
Hessian update/contruction      :      0.001 s (30.813 %)
Making the step                 :      0.000 s ( 7.561 %)
Converting the step to Cartesian:      0.000 s ( 1.674 %)
Storing new data                :      0.000 s (12.941 %)
Checking convergence            :      0.000 s ( 0.120 %)
Final printing                  :      0.001 s (21.070 %)
Total time                      :      0.003 s
--------------------------------------------------------------------------
By default, for Open MPI 4.0 and later, infiniband ports on a device
are not used by default.  The intent is to use UCX for these devices.
You can override this policy by setting the btl_openib_allow_ib MCA parameter
to true.

  Local host:              psid01
  Local adapter:           mlx5_0
  Local port:              1

--------------------------------------------------------------------------
--------------------------------------------------------------------------
WARNING: There was an error initializing an OpenFabrics device.

  Local host:   psid01
  Local device: mlx5_0
--------------------------------------------------------------------------
[psid01:236039] 19 more processes have sent help message help-mpi-btl-openib.txt / ib port not selected
[psid01:236039] Set MCA parameter "orte_base_help_aggregate" to 0 to see all help / error messages
[psid01:236039] 19 more processes have sent help message help-mpi-btl-openib.txt / error in device init

Time for energy+gradient        :     12.387 s
Time for complete geometry iter :     13.363 s

         *************************************************************
         *                GEOMETRY OPTIMIZATION CYCLE   2            *
         *************************************************************
---------------------------------
CARTESIAN COORDINATES (ANGSTROEM)
---------------------------------
  O     -1.082875   -0.702325   -0.000837
  O      1.082860   -0.702333   -0.000837
  O      0.000028    1.295273   -0.000698
  C     -0.000015    0.089487   -0.001613
  C     -2.334455   -0.008743   -0.000219
  C      2.334412   -0.008782   -0.000215
  H     -2.430284    0.608005    0.893524
  H     -3.111123   -0.770290    0.000290
  H     -2.431237    0.607880   -0.893941
  H      3.111081   -0.770350    0.000248
  H      2.430318    0.607953    0.893530
  H      2.431289    0.607825   -0.893932

----------------------------
CARTESIAN COORDINATES (A.U.)
----------------------------
  NO LB      ZA    FRAG     MASS         X           Y           Z
   0 O     8.0000    0    15.999   -2.046337   -1.327203   -0.001583
   1 O     8.0000    0    15.999    2.046309   -1.327217   -0.001582
   2 O     8.0000    0    15.999    0.000054    2.447712   -0.001318
   3 C     6.0000    0    12.011   -0.000028    0.169106   -0.003049
   4 C     6.0000    0    12.011   -4.411480   -0.016523   -0.000414
   5 C     6.0000    0    12.011    4.411399   -0.016596   -0.000405
   6 H     1.0000    0     1.008   -4.592571    1.148964    1.688515
   7 H     1.0000    0     1.008   -5.879171   -1.455637    0.000549
   8 H     1.0000    0     1.008   -4.594371    1.148727   -1.689304
   9 H     1.0000    0     1.008    5.879090   -1.455751    0.000469
  10 H     1.0000    0     1.008    4.592636    1.148865    1.688527
  11 H     1.0000    0     1.008    4.594470    1.148624   -1.689287

--------------------------------
INTERNAL COORDINATES (ANGSTROEM)
--------------------------------
 O      0   0   0     0.000000000000     0.00000000     0.00000000
 O      1   0   0     2.165735352520     0.00000000     0.00000000
 O      2   1   0     2.272213914488    61.53924194     0.00000000
 C      3   2   1     1.205786894535    28.46263481   359.91712248
 C      1   2   3     1.430911757840   151.00649845   359.95293003
 C      2   1   3     1.430871990096   151.00664258     0.04743562
 H      5   1   2     1.090109536484   110.57786608   298.93104253
 H      5   1   2     1.087734848968   106.56954662   180.06531807
 H      5   1   2     1.090105704697   110.57795285    61.19479921
 H      6   2   1     1.087749862485   106.56931927   179.93698829
 H      6   2   1     1.090109943041   110.58117078    61.07088636
 H      6   2   1     1.090101506954   110.58185480   298.80218572

---------------------------
INTERNAL COORDINATES (A.U.)
---------------------------
 O      0   0   0     0.000000000000     0.00000000     0.00000000
 O      1   0   0     4.092646694814     0.00000000     0.00000000
 O      2   1   0     4.293862016068    61.53924194     0.00000000
 C      3   2   1     2.278607006543    28.46263481   359.91712248
 C      1   2   3     2.704031344125   151.00649845   359.95293003
 C      2   1   3     2.703956193980   151.00664258     0.04743562
 H      5   1   2     2.060008479931   110.57786608   298.93104253
 H      5   1   2     2.055520970872   106.56954662   180.06531807
 H      5   1   2     2.060001238902   110.57795285    61.19479921
 H      6   2   1     2.055549342308   106.56931927   179.93698829
 H      6   2   1     2.060009248212   110.58117078    61.07088636
 H      6   2   1     2.059993306318   110.58185480   298.80218572

--------------------------------------------------------------------------
By default, for Open MPI 4.0 and later, infiniband ports on a device
are not used by default.  The intent is to use UCX for these devices.
You can override this policy by setting the btl_openib_allow_ib MCA parameter
to true.

  Local host:              psid01
  Local adapter:           mlx5_0
  Local port:              1

--------------------------------------------------------------------------
--------------------------------------------------------------------------
WARNING: There was an error initializing an OpenFabrics device.

  Local host:   psid01
  Local device: mlx5_0
--------------------------------------------------------------------------


           ************************************************************
           *        Program running with 20 parallel MPI-processes    *
           *              working on a common directory               *
           ************************************************************
------------------------------------------------------------------------------
                   ___                                                        
                  /   \      - P O W E R E D   B Y -                         
                 /     \                                                     
                 |  |  |   _    _      __       _____    __    __             
                 |  |  |  | |  | |    /  \     |  _  \  |  |  /  |          
                  \  \/   | |  | |   /    \    | | | |  |  | /  /          
                 / \  \   | |__| |  /  /\  \   | |_| |  |  |/  /          
                |  |  |   |  __  | /  /__\  \  |    /   |      \           
                |  |  |   | |  | | |   __   |  |    \   |  |\   \          
                \     /   | |  | | |  |  |  |  | |\  \  |  | \   \       
                 \___/    |_|  |_| |__|  |__|  |_| \__\ |__|  \__/        
                                                                              
                      - O R C A' S   B I G   F R I E N D -                    
                                      &                                       
                       - I N T E G R A L  F E E D E R -                       
                                                                              
 v1 FN, 2020, v2 2021, v3 2022-2024                                           
------------------------------------------------------------------------------


----------------------
SHARK INTEGRAL PACKAGE
----------------------

Number of atoms                             ...     12
Number of basis functions                   ...    222
Number of shells                            ...     90
Maximum angular momentum                    ...      3
Integral batch strategy                     ... SHARK/LIBINT Hybrid
RI-J (if used) integral strategy            ... SPLIT-RIJ (Revised 2003 algorithm where possible)
Printlevel                                  ...      1
Contraction scheme used                     ... SEGMENTED contraction
Prescreening option                         ... SCHWARTZ
   Thresh                                   ... 2.500e-11
   Tcut                                     ... 2.500e-12
   Tpresel                                  ... 2.500e-12 
Coulomb Range Separation                    ... NOT USED
Exchange Range Separation                   ... NOT USED
Multipole approximations                    ... NOT USED
Finite Nucleus Model                        ... NOT USED
CABS basis                                  ... NOT available
Auxiliary Coulomb fitting basis             ... AVAILABLE
   # of basis functions in Aux-J            ...    360
   # of shells in Aux-J                     ...    120
   Maximum angular momentum in Aux-J        ...      4
Auxiliary J/K fitting basis                 ... NOT available
Auxiliary Correlation fitting basis         ... NOT available
Auxiliary 'external' fitting basis          ... NOT available

Checking pre-screening integrals            ... done (  0.0 sec) Dimension = 90
Check shell pair data                       ... done (  0.0 sec)
Shell pair information
Shell pair cut-off parameter TPreSel        ...   2.5e-12
[...]
      f-1     :     0.001445
      f+2     :     0.000574
      f-2     :     0.000896
      f+3     :     0.001870
      f-3     :     0.001413

  6 H s       :     0.854196  s :     0.854196
      pz      :     0.010105  p :     0.020510
      px      :     0.003150
      py      :     0.007255

  7 H s       :     0.852524  s :     0.852524
      pz      :     0.004392  p :     0.020591
      px      :     0.007949
      py      :     0.008249

  8 H s       :     0.854194  s :     0.854194
      pz      :     0.010107  p :     0.020510
      px      :     0.003150
      py      :     0.007254

  9 H s       :     0.852524  s :     0.852524
      pz      :     0.004392  p :     0.020591
      px      :     0.007949
      py      :     0.008250

 10 H s       :     0.854196  s :     0.854196
      pz      :     0.010105  p :     0.020510
      px      :     0.003150
      py      :     0.007255

 11 H s       :     0.854194  s :     0.854194
      pz      :     0.010107  p :     0.020510
      px      :     0.003150
      py      :     0.007254



                     *******************************
                     * LOEWDIN POPULATION ANALYSIS *
                     *******************************

----------------------
LOEWDIN ATOMIC CHARGES
----------------------
   0 O :    0.239555
   1 O :    0.239555
   2 O :    0.081186
   3 C :   -0.642894
   4 C :   -0.293520
   5 C :   -0.293521
   6 H :    0.111118
   7 H :    0.112583
   8 H :    0.111118
   9 H :    0.112584
  10 H :    0.111118
  11 H :    0.111118

-------------------------------
LOEWDIN REDUCED ORBITAL CHARGES
-------------------------------
  0 O s       :     3.258168  s :     3.258168
      pz      :     1.591971  p :     4.387944
      px      :     1.248681
      py      :     1.547292
      dz2     :     0.011307  d :     0.107375
      dxz     :     0.018238
      dyz     :     0.007369
      dx2y2   :     0.026704
      dxy     :     0.043756
      f0      :     0.000636  f :     0.006959
      f+1     :     0.000928
      f-1     :     0.000328
      f+2     :     0.000177
      f-2     :     0.001049
      f+3     :     0.002249
      f-3     :     0.001593

  1 O s       :     3.258168  s :     3.258168
      pz      :     1.591971  p :     4.387943
      px      :     1.248680
      py      :     1.547292
      dz2     :     0.011307  d :     0.107375
      dxz     :     0.018238
      dyz     :     0.007369
      dx2y2   :     0.026704
      dxy     :     0.043756
      f0      :     0.000636  f :     0.006959
      f+1     :     0.000928
      f-1     :     0.000328
      f+2     :     0.000177
      f-2     :     0.001049
      f+3     :     0.002249
      f-3     :     0.001593

  2 O s       :     3.399404  s :     3.399404
      pz      :     1.369241  p :     4.445555
      px      :     1.595704
      py      :     1.480611
      dz2     :     0.008626  d :     0.067340
      dxz     :     0.000146
      dyz     :     0.015822
      dx2y2   :     0.026989
      dxy     :     0.015757
      f0      :     0.000519  f :     0.006515
      f+1     :     0.000099
      f-1     :     0.001063
      f+2     :     0.000965
      f-2     :     0.000073
      f+3     :     0.001759
      f-3     :     0.002037

  3 C s       :     2.729278  s :     2.729278
      pz      :     0.781157  p :     2.618638
      px      :     0.849914
      py      :     0.987567
      dz2     :     0.076792  d :     1.096396
      dxz     :     0.130205
      dyz     :     0.212440
      dx2y2   :     0.263952
      dxy     :     0.413007
      f0      :     0.011023  f :     0.198581
      f+1     :     0.010569
      f-1     :     0.014061
      f+2     :     0.022567
      f-2     :     0.027628
      f+3     :     0.080332
      f-3     :     0.032401

  4 C s       :     2.865698  s :     2.865698
      pz      :     1.116875  p :     3.012786
      px      :     0.847508
      py      :     1.048402
      dz2     :     0.047849  d :     0.362130
      dxz     :     0.059189
      dyz     :     0.077433
      dx2y2   :     0.059026
      dxy     :     0.118634
      f0      :     0.005413  f :     0.052906
      f+1     :     0.006577
      f-1     :     0.004722
      f+2     :     0.006567
      f-2     :     0.005166
      f+3     :     0.012983
      f-3     :     0.011478

  5 C s       :     2.865698  s :     2.865698
      pz      :     1.116875  p :     3.012786
      px      :     0.847502
      py      :     1.048408
      dz2     :     0.047849  d :     0.362130
      dxz     :     0.059191
      dyz     :     0.077430
      dx2y2   :     0.059026
      dxy     :     0.118635
      f0      :     0.005413  f :     0.052906
      f+1     :     0.006577
      f-1     :     0.004722
      f+2     :     0.006568
      f-2     :     0.005165
      f+3     :     0.012983
      f-3     :     0.011478

  6 H s       :     0.827053  s :     0.827053
      pz      :     0.030755  p :     0.061829
      px      :     0.009402
      py      :     0.021671

  7 H s       :     0.826891  s :     0.826891
      pz      :     0.013749  p :     0.060526
      px      :     0.021481
      py      :     0.025296

  8 H s       :     0.827053  s :     0.827053
      pz      :     0.030760  p :     0.061829
      px      :     0.009402
      py      :     0.021668

  9 H s       :     0.826891  s :     0.826891
      pz      :     0.013749  p :     0.060526
      px      :     0.021480
      py      :     0.025297

 10 H s       :     0.827054  s :     0.827054
      pz      :     0.030755  p :     0.061829
      px      :     0.009402
      py      :     0.021671

 11 H s       :     0.827053  s :     0.827053
      pz      :     0.030760  p :     0.061829
      px      :     0.009402
      py      :     0.021668



                      *****************************
                      * MAYER POPULATION ANALYSIS *
                      *****************************

  NA   - Mulliken gross atomic population
  ZA   - Total nuclear charge
  QA   - Mulliken gross atomic charge
  VA   - Mayer's total valence
  BVA  - Mayer's bonded valence
  FA   - Mayer's free valence

  ATOM       NA         ZA         QA         VA         BVA        FA
  0 O      8.2642     8.0000    -0.2642     2.1052     2.1052    -0.0000
  1 O      8.2642     8.0000    -0.2642     2.1052     2.1052    -0.0000
  2 O      8.3611     8.0000    -0.3611     2.1235     2.1235     0.0000
  3 C      5.5558     6.0000     0.4442     4.4034     4.4034     0.0000
  4 C      6.1548     6.0000    -0.1548     3.8543     3.8543     0.0000
  5 C      6.1548     6.0000    -0.1548     3.8543     3.8543     0.0000
  6 H      0.8747     1.0000     0.1253     0.9682     0.9682     0.0000
  7 H      0.8731     1.0000     0.1269     0.9611     0.9611     0.0000
  8 H      0.8747     1.0000     0.1253     0.9682     0.9682    -0.0000
  9 H      0.8731     1.0000     0.1269     0.9611     0.9611     0.0000
 10 H      0.8747     1.0000     0.1253     0.9682     0.9682     0.0000
 11 H      0.8747     1.0000     0.1253     0.9682     0.9682    -0.0000

  Mayer bond orders larger than 0.100000
B(  0-O ,  3-C ) :   1.2073 B(  0-O ,  4-C ) :   0.8936 B(  1-O ,  3-C ) :   1.2073 
B(  1-O ,  5-C ) :   0.8936 B(  2-O ,  3-C ) :   1.9547 B(  4-C ,  6-H ) :   0.9741 
B(  4-C ,  7-H ) :   0.9657 B(  4-C ,  8-H ) :   0.9741 B(  5-C ,  9-H ) :   0.9657 
B(  5-C , 10-H ) :   0.9741 B(  5-C , 11-H ) :   0.9741 

-------
TIMINGS
-------

Total SCF time: 0 days 0 hours 0 min 2 sec 

Total time                  ....       2.383 sec
Sum of individual times     ....       2.306 sec  ( 96.7%)

SCF preparation             ....       0.629 sec  ( 26.4%)
Fock matrix formation       ....       1.489 sec  ( 62.5%)
  Startup                   ....       0.030 sec  (  2.0% of F)
  Split-RI-J                ....       0.086 sec  (  5.8% of F)
  Chain of spheres X        ....       1.089 sec  ( 73.1% of F)
  XC integration            ....       0.247 sec  ( 16.6% of F)
    XC Preparation          ....       0.000 sec  (  0.0% of XC)
    Basis function eval.    ....       0.036 sec  ( 14.4% of XC)
    Density eval.           ....       0.023 sec  (  9.3% of XC)
    XC-Functional eval.     ....       0.008 sec  (  3.2% of XC)
    XC-Potential eval.      ....       0.049 sec  ( 19.8% of XC)
Diagonalization             ....       0.000 sec  (  0.0%)
Density matrix formation    ....       0.032 sec  (  1.4%)
Total Energy calculation    ....       0.020 sec  (  0.8%)
Population analysis         ....       0.029 sec  (  1.2%)
Orbital Transformation      ....       0.016 sec  (  0.7%)
Orbital Orthonormalization  ....       0.000 sec  (  0.0%)
DIIS solution               ....       0.040 sec  (  1.7%)
SOSCF solution              ....       0.050 sec  (  2.1%)
Finished LeanSCF after   2.4 sec

Maximum memory used throughout the entire LEANSCF-calculation: 20.2 MB
[psid01:238223] 19 more processes have sent help message help-mpi-btl-openib.txt / ib port not selected
[psid01:238223] Set MCA parameter "orte_base_help_aggregate" to 0 to see all help / error messages
[psid01:238223] 19 more processes have sent help message help-mpi-btl-openib.txt / error in device init

-------------------------   --------------------
FINAL SINGLE POINT ENERGY      -343.579664327289
-------------------------   --------------------

                                *** OPTIMIZATION RUN DONE ***

--------------------------------------------------------------------------
By default, for Open MPI 4.0 and later, infiniband ports on a device
are not used by default.  The intent is to use UCX for these devices.
You can override this policy by setting the btl_openib_allow_ib MCA parameter
to true.

  Local host:              psid01
  Local adapter:           mlx5_0
  Local port:              1

--------------------------------------------------------------------------
--------------------------------------------------------------------------
WARNING: There was an error initializing an OpenFabrics device.

  Local host:   psid01
  Local device: mlx5_0
--------------------------------------------------------------------------


           ************************************************************
           *        Program running with 20 parallel MPI-processes    *
           *              working on a common directory               *
           ************************************************************

------------------------------------------------------------------------------
                              ORCA PROPERTY CALCULATIONS
------------------------------------------------------------------------------

GBWName                                 ... DMC.gbw
Number of atoms                         ...     12
Number of basis functions               ...    222
Max core memory                         ...   5000 MB

Electric properties:
Dipole moment                           ... YES
Quadrupole moment                       ...  NO
Static polarizability (Dipole/Dipole)   ...  NO
Static polarizability (Dipole/Quad.)    ...  NO
Static polarizability (Quad./Quad.)     ...  NO
Static polarizability (Velocity)        ...  NO

Atomic electric properties:
Dipole moment                           ...  NO
Quadrupole moment                       ...  NO
Static polarizability                   ...  NO

Choice of electric origin               ... Center of mass
Position of electric origin             ...    -0.000002     0.000513    -0.000723

General magnetic properties:
Magnetizability                         ...  NO

EPR properties:
g-Tensor (aka g-matrix)                 ...  NO
Zero-Field splitting spin-orbit         ...  NO
Zero-field splitting spin-spin          ...  NO
Hyperfine couplings                     ...  NO (   0 nuclei)
Quadrupole couplings                    ...  NO (   0 nuclei)
Contact density                         ...  NO (   0 nuclei)

NMR properties:
Chemical shifts                         ...  NO (   0 nuclei)
Spin-rotation constants                 ...  NO (   0 nuclei)
Spin-spin couplings                     ...  NO (   0 nuclei,    0 pairs)

Choice of magnetic origin               ... GIAO
Position of magnetic origin             ...     0.000000     0.000000     0.000000

Properties with geometric perturbations:
SCF Hessian                             ...  NO
IR spectrum                             ...  NO
VCD spectrum                            ...  NO
X-ray spectroscopy properties:
SCF XES/XAS/RIXS spectra                ...  NO


-------------
DIPOLE MOMENT
-------------

Method             : SCF
Type of density    : Electron Density
Multiplicity       :   1
Irrep              :   0
Energy             :  -343.5796643272894926 Eh
Relativity type    : 
Basis              : AO
                                X                 Y                 Z
Electronic contribution:     -0.000017027      -1.007587264       0.000111317
Nuclear contribution   :      0.000015364       0.832263537      -0.000103805
                        -----------------------------------------
Total Dipole Moment    :     -0.000001663      -0.175323728       0.000007512
                        -----------------------------------------
Magnitude (a.u.)       :      0.175323728
Magnitude (Debye)      :      0.445637501



--------------------
Rotational spectrum 
--------------------
 
Rotational constants in cm-1:             0.348458             0.078286             0.065505 
Rotational constants in MHz :         10446.493269          2346.943011          1963.803579 

Dipole components along the rotational axes: 
x,y,z [a.u.] :     0.000000    -0.175324    -0.000014 
x,y,z [Debye]:     0.000001    -0.445637    -0.000035 

 

Dipole moment calculation done in   0.0 sec 

Maximum memory used throughout the entire PROP-calculation: 10.3 MB
[psid01:238290] 19 more processes have sent help message help-mpi-btl-openib.txt / ib port not selected
[psid01:238290] Set MCA parameter "orte_base_help_aggregate" to 0 to see all help / error messages
[psid01:238290] 19 more processes have sent help message help-mpi-btl-openib.txt / error in device init
--------------------------------------------------------------------------
By default, for Open MPI 4.0 and later, infiniband ports on a device
are not used by default.  The intent is to use UCX for these devices.
You can override this policy by setting the btl_openib_allow_ib MCA parameter
to true.

  Local host:              psid01
  Local adapter:           mlx5_0
  Local port:              1

--------------------------------------------------------------------------
--------------------------------------------------------------------------
WARNING: There was an error initializing an OpenFabrics device.

  Local host:   psid01
  Local device: mlx5_0
--------------------------------------------------------------------------
[psid01:238355] 19 more processes have sent help message help-mpi-btl-openib.txt / ib port not selected
[psid01:238355] Set MCA parameter "orte_base_help_aggregate" to 0 to see all help / error messages
[psid01:238355] 19 more processes have sent help message help-mpi-btl-openib.txt / error in device init

--------------------------------
SUGGESTED CITATIONS FOR THIS RUN
--------------------------------

Below you find a list of papers that are relevant to this ORCA run
We neither can nor want to force you to cite these papers, but we appreciate if you do
You receive ORCA, which is the product of decades of hard work by many enthusiastic individuals, for free
The only thing we kindly ask in return is that you cite our papers,
We deeply appreciate it, if you show your appreciation for ORCA by not just citing the generic ORCA reference.

Please note that relegating all ORCA citations to the supporting information does *not* help us.
SI sections are not indexed - citations you put there will not count into any citation statistics
But we need these citations in order to attract the funding resources that allow us to do what we are doing

Therefore, if you are a happy ORCA user, please consider citing a few of the papers listed below in the main body of your paper

In addition to the list printed below, the program has created the file DMC.bibtex that contains the list in bibtex format
You can import this file easily into all common literature databanks and citation aid programs


List of essential papers. We consider these as the minimum necessary citations

  1. Neese,F.
     Software update: the ORCA program system, version 5.0
     WIRES Comput. Molec. Sci., 2022 12(1)e1606
     doi.org/10.1002/wcms.1606

List of papers to cite with high priority. The work reported in these papers was absolutely
necessary for this run to complete.
Our perspective: the developers of density functionals and basis sets usually get cited in chemistry papers
Good! But without the algorithms to do something with them, the functionals or basis sets would not do anything.
Hence, in our opinion, the algorithm design and method developments papers are equally worthy of getting cited

  1. Neese,F.
     An improvement of the resolution of the identity approximation for the formation of the Coulomb matrix
     J. Comp. Chem., 2003 24(14)1740-1747
     doi.org/10.1002/jcc.10318
  2. Neese,F.; Wennmohs,F.; Hansen,A.; Becker,U.
     Efficient, approximate and parallel Hartree-Fock and hybrid DFT calculations. A 'chain-of-spheres' algorithm for the Hartree-Fock exchange
     Chem. Phys., 2009 356(1-3)98-109
     doi.org/10.1016/j.chemphys.2008.10.036
  3. Helmich-Paris,B.; de Souza,B.; Neese,F.; Izsák,R.
     An improved chain of spheres for exchange algorithm
     J. Chem. Phys., 2021 155 104109
     doi.org/doi: 10.1063/5.0058766.
  4. Neese,F.
     The SHARK Integral Generation and Digestion System
     J. Comp. Chem., 2022  1-16
     doi.org/10.1002/jcc.26942

List of suggested additional citations. These are papers that are important in the 'surrounding' of 
of this run, or papers that preceded the highly important papers. If you like your results we are grateful for a citation.

  1. Izsak,R.; Neese,F.
     An overlap fitted chain of spheres exchange method
     J. Chem. Phys., 2011 135 144105
     doi.org/10.1063/1.3646921
  2. Izsak,R.; Hansen,A.; Neese,F.
     The resolution of identity and chain of spheres approximations for the LPNO-CCSD singles Fock term
     Molec. Phys., 2012 110 2413-2417
     doi.org/10.1080/00268976.2012.687466
  3. Neese,F.
     The ORCA program system
     WIRES Comput. Molec. Sci., 2012 2(1)73-78
     doi.org/10.1002/wcms.81
  4. Izsak,R.; Neese,F.; Klopper,W.
     Robust fitting techniques in the chain of spheres approximation to the Fock exchange: The role of the complementary space
     J. Chem. Phys., 2013 139 
     doi.org/10.1063/1.4819264
  5. Neese,F.
     Software update: the ORCA program system, version 4.0
     WIRES Comput. Molec. Sci., 2018 8(1)1-6
     doi.org/10.1002/wcms.1327
  6. Neese,F.; Wennmohs,F.; Becker,U.; Riplinger,C.
     The ORCA quantum chemistry program package
     J. Chem. Phys., 2020 152 Art. No. L224108
     doi.org/10.1063/5.0004608

List of optional additional citations

  1. Neese,F.
     Approximate second-order SCF convergence for spin unrestricted wavefunctions
     Chem. Phys. Lett., 2000 325(1-3)93-98
     doi.org/10.1016/s0009-2614(00)00662-x

Timings for individual modules:

Sum of individual times          ...       67.744 sec (=   1.129 min)
Startup calculation              ...       11.665 sec (=   0.194 min)  17.2 %
SCF iterations                   ...       36.770 sec (=   0.613 min)  54.3 %
Property calculations            ...        0.896 sec (=   0.015 min)   1.3 %
SCF Gradient evaluation          ...       18.367 sec (=   0.306 min)  27.1 %
Geometry relaxation              ...        0.046 sec (=   0.001 min)   0.1 %
                             ****ORCA TERMINATED NORMALLY****
TOTAL RUN TIME: 0 days 0 hours 1 minutes 15 seconds 747 msec
