
                                 *****************
                                 * O   R   C   A *
                                 *****************

                                            #,                                       
                                            ###                                      
                                            ####                                     
                                            #####                                    
                                            ######                                   
                                           ########,                                 
                                     ,,################,,,,,                         
                               ,,#################################,,                 
                          ,,##########################################,,             
                       ,#########################################, ''#####,          
                    ,#############################################,,   '####,        
                  ,##################################################,,,,####,       
                ,###########''''           ''''###############################       
              ,#####''   ,,,,##########,,,,          '''####'''          '####       
            ,##' ,,,,###########################,,,                        '##       
           ' ,,###''''                  '''############,,,                           
         ,,##''                                '''############,,,,        ,,,,,,###''
      ,#''                                            '''#######################'''  
     '                                                          ''''####''''         
             ,#######,   #######,   ,#######,      ##                                
            ,#'     '#,  ##    ##  ,#'     '#,    #''#        ,####,   ,####,        
            ##       ##  ##   ,#'  ##            #'  '#       #'       #'  '#        
            ##       ##  #######   ##           ,######,      #####,   #    #        
            '#,     ,#'  ##    ##  '#,     ,#' ,#      #,     #,   #   #,  ,#        
             '#######'   ##     ##  '#######'  #'      '#     '####' # '####'        



                #########################################################
                #                        -***-                          #
                #          Department of theory and spectroscopy        #
                #                                                       #
                #                      Frank Neese                      #
                #                                                       #
                #     Directorship, Architecture, Infrastructure        #
                #                    SHARK, DRIVERS                     #
                #        Core code/Algorithms in most modules           #
                #                                                       #
                #        Max Planck Institute fuer Kohlenforschung      #
                #                Kaiser Wilhelm Platz 1                 #
                #                 D-45470 Muelheim/Ruhr                 #
                #                      Germany                          #
                #                                                       #
                #                  All rights reserved                  #
                #                        -***-                          #
                #########################################################


                         Program Version 6.0.1  -  RELEASE   -


 With contributions from (in alphabetic order):
[Max-Planck-Institut fuer Kohlenforschung]                               
  Daniel Aravena         : Magnetic Suceptibility                        
  Michael Atanasov       : Ab Initio Ligand Field Theory (pilot matlab implementation)
  Alexander A. Auer      : GIAO ZORA, VPT2 properties, NMR spectrum      
  Ute Becker             : All parallelization in ORCA, NUMFREQ, NUMCALC 
  Giovanni Bistoni       : ED, misc. LED, open-shell LED, HFLD           
  Martin Brehm           : Molecular dynamics                            
  Dmytro Bykov           : pre 5.0 version of the SCF Hessian            
  Marcos Casanova-Páez   : Triplet and SCS-CIS(D). UHF-(DLPNO)-IP/EA/STEOM-CCSD. UHF-CVS-IP/STEOM-CCSD   
  Vijay G. Chilkuri      : MRCI spin determinant printing, contributions to CSF-ICE 
  Pauline Colinet        : FMM embedding                                 
  Dipayan Datta          : RHF DLPNO-CCSD density                        
  Achintya Kumar Dutta   : EOM-CC, STEOM-CC                              
  Nicolas Foglia         : Exact transition moments, OPA infrastructure, MCD improvements    
  Dmitry Ganyushin       : Spin-Orbit,Spin-Spin,Magnetic field MRCI      
  Miquel Garcia-Rates    : C-PCM and meta-GGA Hessian, CCSD/C-PCM, Gaussian charge scheme 
  Tiago L. C. Gouveia    : GS-ROHF, GS-ROCIS                             
  Yang Guo               : DLPNO-NEVPT2, F12-NEVPT2, CIM, IAO-localization        
  Andreas Hansen         : Spin unrestricted coupled pair/coupled cluster methods 
  Ingolf Harden          : AUTO-CI MPn and infrastructure                
  Benjamin Helmich-Paris : MC-RPA, TRAH-(SCF,CASSCF), AVAS, COSX integrals, SCF dyn. polar. 
  Lee Huntington         : MR-EOM, pCC                                   
  Robert Izsak           : Overlap fitted RIJCOSX, COSX-SCS-MP3, EOM     
  Riya Kayal             : Wick's Theorem for AUTO-CI, AUTO-CI UHF-CCSDT 
  Emily Kempfer          : AUTO-CI, RHF CISDT and CCSDT                  
  Christian Kollmar      : KDIIS, OOCD, Brueckner-CCSD(T), CCSD density, CASPT2, CASPT2-K, improved NEVPT2 
  Axel Koslowski         : Symmetry handling                             
  Simone Kossmann        : meta-GGA functionals, TD-DFT gradient, OOMP2, (MP2 Hessian; deprecated post 5.0) 
  Lucas Lang             : DCDCAS                                        
  Marvin Lechner         : AUTO-CI (C++ implementation), FIC-MRCC        
  Spencer Leger          : CASSCF response                               
  Dagmar Lenk            : GEPOL surface, SMD, ORCA-2-JSON               
  Dimitrios Liakos       : Extrapolation schemes; Compound Job, initial MDCI parallelization 
  Dimitrios Manganas     : Further ROCIS development; embedding schemes. LFT, Crystal Embedding 
  Dimitrios Pantazis     : SARC Basis sets                               
  Anastasios Papadopoulos: AUTO-CI, single reference methods and gradients 
  Taras Petrenko         : pre 6.0 DFT Hessian and TD-DFT gradient, (ASA, deprecated), ECA, 1-Electron XAS/XES, NRVS 
  Peter Pinski           : DLPNO-MP2, DLPNO-MP2 Gradient                 
  Christoph Reimann      : Effective Core Potentials                     
  Marius Retegan         : Local ZFS, SOC                                
  Christoph Riplinger    : Optimizer, TS searches, QM/MM, DLPNO-CCSD(T), (RO)-DLPNO pert. Triples 
  Michael Roemelt        : Original ROCIS implementation                 
  Masaaki Saitow         : Open-shell DLPNO-CCSD energy and density      
  Barbara Sandhoefer     : DKH picture change effects                    
  Kantharuban Sivalingam : CASSCF convergence/infrastructure, NEVPT2 and variants, FIC-MRCI 
  Bernardo de Souza      : ESD, SOC TD-DFT                               
  Georgi L. Stoychev     : AutoAux, RI-MP2 NMR, DLPNO-MP2 response, X2C  
  Van Anh Tran           : RI-MP2 g-tensors                              
  Willem Van den Heuvel  : Paramagnetic NMR                              
  Zikuan Wang            : NOTCH, Electric field optimization            
  Frank Wennmohs         : Technical directorship and infrastructure     
  Hang Xu                : AUTO-CI-Response properties                   
                                                                         
[FACCTs GmbH]                                                            
  Markus Bursch, Miquel Garcia-Rates, Christoph Riplinger, Bernardo de Souza, Georgi L. Stoychev 
                                                                 
  APM, Basis sets (HGBS, AHGBS, def-TZVP (Ac-Lr), def2-XVPD (La-Lu)), CI-OPT, improved COSX, DLPNO-Multilevel,           
  DOCKER, DRACO, updates on ESD, GOAT, IRC, LR-CPCM, MBIS, meta-GGA TD-DFT gradient, ML-optimized integration grids, 
  MM, NACMEs, nearIR, NEB, NEB-TS, NL-DFT gradient (VV10), 2- and 3-layer-ONIOM, interface openCOSMO-RS, QMMM,   
  Crystal-QMMM, SF, symmetry and pop. for TD-DFT, r2SCAN hybrids, SOLVATOR                                   
                                                                         
[Other institutions]                                                     
  V. Asgeirsson          : NEB                                           
  Christoph Bannwarth    : sTDA-DFT, sTD-DFT, PBEh-3c, B97-3c, D3        
  Sebastian Ehlert       : rSCAN, r2SCAN, r2SCAN-3c, D4, dhf basis sets  
  Marvin Friede          : D4 for Fr, Ra, Ac-Lr                          
  Lars Goerigk           : TD-DFT with DH, B97 family of functionals     
  Stefan Grimme          : VdW corrections, initial TS optimization, DFT functionals, gCP, sTDA/sTD-DF 
  Waldemar Hujo          : DFT-NL                                        
  H. Jonsson             : NEB                                           
  Holger Kruse           : gCP                                           
  Marcel Mueller         : wB97X-3c, vDZP basis set                      
  Hagen Neugebauer       : wr2SCAN                                       
  Tobias Risthaus        : range-separated hybrid DFT                    
  Lukas Wittmann         : regularized MP2, r2SCAN double-hybrids, wr2SCAN        
                                                                         
We gratefully acknowledge several colleagues who have allowed us to      
interface, adapt or use parts of their codes:                            
  Ed Valeev, F. Pavosevic, A. Kumar             : LibInt (2-el integral package), F12 methods 
  Garnet Chan, S. Sharma, J. Yang, R. Olivares  : DMRG                   
  Ulf Ekstrom                                   : XCFun DFT Library      
  Mihaly Kallay                                 : mrcc  (arbitrary order and MRCC methods)
  Frank Weinhold                                : gennbo (NPA and NBO analysis)           
  Simon Mueller                                 : openCOSMO-RS                            
  Christopher J. Cramer and Donald G. Truhlar   : smd solvation model                     
  S Lehtola, MJT Oliveira, MAL Marques          : LibXC Library                           
  Liviu Ungur et al                             : ANISO software                          


 Your calculation uses the libint2 library for the computation of 2-el integrals
 For citations please refer to: http://libint.valeyev.net

 Your ORCA version has been built with support for libXC version: 6.2.2
 For citations please refer to: https://libxc.gitlab.io

 This ORCA versions uses:
   CBLAS   interface :  Fast vector & matrix operations
   LAPACKE interface :  Fast linear algebra routines
   SCALAPACK package :  Parallel linear algebra routines
   Shared memory     :  Shared parallel matrices
   BLAS/LAPACK       :  OpenBLAS 0.3.27  USE64BITINT DYNAMIC_ARCH NO_AFFINITY SkylakeX SINGLE_THREADED
        Core in use  :  SkylakeX
   Copyright (c) 2011-2014, The OpenBLAS Project


NOTE: MaxCore=5000 MB was set to SCF,MP2,MDCI,CIPSI,MRCI and CIS
      => If you want to overwrite this, your respective input block should be placed after the MaxCore statement
Warning: RI is on but no J-basis has been assigned. Assigning Def2/J (nothing to worry about!)
================================================================================

----- Orbital basis set information -----
Your calculation utilizes the basis: def2-TZVP
   F. Weigend and R. Ahlrichs, Phys. Chem. Chem. Phys. 7, 3297 (2005).

----- AuxJ basis set information -----
Your calculation utilizes the auxiliary basis: def2/J
   F. Weigend, Phys. Chem. Chem. Phys. 8, 1057 (2006).

================================================================================
                                        WARNINGS
                       Please study these warnings very carefully!
================================================================================


WARNING: Geometry Optimization
  ===> : Switching off AutoStart
         For restart on a previous wavefunction, please use MOREAD

================================================================================
                                       INPUT FILE
================================================================================
NAME = honokiol2-opt_EC2_closer.inp
|  1> ! OPT B3LYP def2-TZVP TightSCF
|  2> 
|  3> %maxcore 5000
|  4> 
|  5> %pal
|  6> nprocs 28
|  7> end
|  8> 
|  9> * xyz 0 1
| 10> O        1.4378139690      1.3195661235      2.4846843332                 
| 11> O       -3.6234784392     -2.4172476261      2.1711296358                 
| 12> C        1.2316508747     -0.0452440627      0.4817526856                 
| 13> C       -0.0501295459     -0.6510174407      0.9272245169                 
| 14> C       -2.4024759936     -1.1701844750      0.4805485812                 
| 15> C       -1.1861958465     -0.5988938885      0.1143732559                 
| 16> C        2.9867134943      0.1617234126     -1.2121583974                 
| 17> C        1.7864084777     -0.3790163602     -0.7557909566                 
| 18> C        1.9136446812      0.8917012095      1.2783982648                 
| 19> C       -0.1652800460     -1.3115486672      2.1572460316                 
| 20> C       -2.4771908492     -1.8350995348      1.7152730738                 
| 21> C       -3.6188231316     -1.0376314015     -0.4145222949                 
| 22> C        3.5576306637     -0.2451035689     -2.5577859631                 
| 23> C        3.6421187806      1.0766477396     -0.3896775700                 
| 24> C       -1.3613188329     -1.8963360126      2.5450015093                 
| 25> C        3.1126486007      1.4427193920      0.8396092968                 
| 26> C       -4.2044651309     -2.3528284400     -0.8606614678                 
| 27> C        2.6825503367      0.1391758189     -3.7190133238                 
| 28> C       -5.4758298944     -2.7129338946     -0.7095144037                 
| 29> C        2.1941432179     -0.7034841813     -4.6214319285                 
| 30> H       -1.1246082271     -0.0761530641     -0.8334873778                 
| 31> H        1.2640322567     -1.1006001298     -1.3739214573                 
| 32> H        0.7008179833     -1.4037257393      2.8019448401                 
| 33> H       -4.3961225376     -0.4520252456      0.0890069602                 
| 34> H       -3.3251032997     -0.4664904020     -1.3000436612                 
| 35> H        3.7333084446     -1.3251045492     -2.5829711451                 
| 36> H        4.5359707185      0.2324602654     -2.6760593020                 
| 37> H        4.5807689334      1.5130785794     -0.7119648283                 
| 38> H       -1.4451310488     -2.4239858047      3.4863615777                 
| 39> H        3.6125071571      2.1655921009      1.4715091226                 
| 40> H       -3.5103740987     -3.0409853560     -1.3366432547                 
| 41> H        2.4439570110      1.1973323924     -3.7963031512                 
| 42> H        0.5660773120      0.9317181704      2.6407788884                 
| 43> H       -4.2348821290     -2.5726546693      1.4367226504                 
| 44> H       -5.8390748728     -3.6710786874     -1.0589561646                 
| 45> H       -6.2028307461     -2.0540384265     -0.2452358997                 
| 46> H        1.5717158363     -0.3620514741     -5.4393010668                 
| 47> H        2.4041958508     -1.7670453117     -4.5782351147                 
| 48> H       -5.6973789833      1.1800078606      2.7737960825                 
| 49> H       -5.5651622526     -0.2049184900      4.7476949045                 
| 50> C       -4.9794099843      0.3609755271      2.6989084121                 
| 51> O       -3.5706904103      0.2673555301      4.5400549755                 
| 52> C       -2.9269969865      0.9176821739      3.5356726118                 
| 53> C       -4.7584697031     -0.3553324078      4.0329996100                 
| 54> O       -3.6857991529      0.9072288735      2.4087212682                 
| 55> O       -1.8565330468      1.4219800809      3.6292654776                 
| 56> H       -5.2678457134     -0.3054866522      1.8885275117                 
| 57> H       -4.5701003552     -1.4239528007      3.9117293972                 
| 58> O       -2.9895932241      3.0473847078     -0.3695103223                 
| 59> C       -2.0283339872      3.5302100251      0.1323961357                 
| 60> O       -0.7450692599      3.2374592524     -0.2045687211                 
| 61> O       -2.0522204137      4.4556301035      1.1269242937                 
| 62> C        0.1553823336      3.8753990649      0.7109481621                 
| 63> C       -0.7245390703      4.9368328149      1.3748773958                 
| 64> H        0.5231335840      3.1297148835      1.4184855317                 
| 65> H        0.9901721753      4.2899239619      0.1493077078                 
| 66> H       -0.6166406980      5.9215573189      0.9155261874                 
| 67> H       -0.5759767338      5.0164454312      2.4499458604
| 68> *
| 69> 
| 70>                          ****END OF INPUT****
================================================================================

                       *****************************
                       * Geometry Optimization Run *
                       *****************************

Geometry optimization settings:
Update method            Update   .... BFGS
Choice of coordinates    CoordSys .... (2022) Redundant Internals
Initial Hessian          InHess   .... Almloef's Model
Max. no of cycles        MaxIter  .... 174

Convergence Tolerances:
Energy Change            TolE     ....  5.0000e-06 Eh
Max. Gradient            TolMAXG  ....  3.0000e-04 Eh/bohr
RMS Gradient             TolRMSG  ....  1.0000e-04 Eh/bohr
Max. Displacement        TolMAXD  ....  4.0000e-03 bohr
RMS Displacement         TolRMSD  ....  2.0000e-03 bohr
Strict Convergence                .... False

------------------------------------------------------------------------------
                        ORCA OPTIMIZATION COORDINATE SETUP
------------------------------------------------------------------------------

The optimization will be done in redundant internal coordinates (2022)
Making redundant internal coordinates   ...  (2022 redundants) done
Evaluating the initial hessian          ...  (Almloef) done
Evaluating the coordinates              ...  done
Calculating the B-matrix                .... done
Calculating the G-matrix                .... done
Diagonalizing the G-matrix              .... done
Small eigenvalue found = 2.307e-03
Small eigenvalue found = 3.184e-03
Small eigenvalue found = 4.691e-03
Small eigenvalue found = 7.011e-03
Small eigenvalue found = 1.437e-02
Small eigenvalue found = 1.777e-02
Small eigenvalue found = 2.400e-02
Small eigenvalue found = 2.623e-02
The first mode is                       ....  179
The number of degrees of freedom        ....  168

    -----------------------------------------------------------------
                    Redundant Internal Coordinates


    -----------------------------------------------------------------
         Definition                    Initial Value    Approx d2E/dq
    -----------------------------------------------------------------
      1. B(C   3,C   2)                  1.4861         0.439020   
      2. B(C   5,C   3)                  1.3979         0.606951   
      3. B(C   5,C   4)                  1.3928         0.618482   
      4. B(C   7,C   2)                  1.3967         0.609683   
      5. B(C   7,C   6)                  1.3933         0.617172   
      6. B(C   8,O   0)                  1.3655         0.612283   
      7. B(C   8,C   2)                  1.4063         0.588523   
      8. B(C   9,C   3)                  1.4009         0.600278   
      9. B(C  10,O   1)                  1.3641         0.615533   
     10. B(C  10,C   4)                  1.4044         0.592681   
     11. B(C  11,C   4)                  1.5160         0.393307   
     12. B(C  12,C   6)                  1.5173         0.391432   
     13. B(C  13,C   6)                  1.3940         0.615779   
     14. B(C  14,C  10)                  1.3919         0.620464   
     15. B(C  14,C   9)                  1.3867         0.632499   
     16. B(C  15,C  13)                  1.3876         0.630280   
     17. B(C  15,C   8)                  1.3906         0.623422   
     18. B(C  16,C  11)                  1.5072         0.406159   
     19. B(C  17,C  12)                  1.5040         0.411082   
     20. B(C  18,C  16)                  1.3300         0.778881   
     21. B(C  19,C  17)                  1.3278         0.785273   
     22. B(H  20,C   5)                  1.0842         0.367854   
     23. B(H  21,C   7)                  1.0843         0.367758   
     24. B(H  22,C   9)                  1.0836         0.368623   
     25. B(H  23,C  11)                  1.0958         0.352572   
     26. B(H  24,C  11)                  1.0939         0.354975   
     27. B(H  25,C  12)                  1.0945         0.354215   
     28. B(H  26,C  12)                  1.0951         0.353439   
     29. B(H  27,C  13)                  1.0842         0.367908   
     30. B(H  28,C  14)                  1.0824         0.370291   
     31. B(H  29,C  15)                  1.0825         0.370226   
     32. B(H  30,C  16)                  1.0871         0.363899   
     33. B(H  31,C  17)                  1.0875         0.363460   
     34. B(H  32,O   0)                  0.9668         0.507115   
     35. B(H  33,O   1)                  0.9682         0.504615   
     36. B(H  34,C  18)                  1.0826         0.369976   
     37. B(H  35,C  18)                  1.0855         0.366153   
     38. B(H  36,C  19)                  1.0830         0.369472   
     39. B(H  37,C  19)                  1.0850         0.366822   
     40. B(C  40,H  38)                  1.0917         0.357802   
     41. B(C  42,O  41)                  1.3587         0.627801   
     42. B(C  43,O  41)                  1.4338         0.476498   
     43. B(C  43,C  40)                  1.5303         0.373211   
     44. B(C  43,H  39)                  1.0882         0.362497   
     45. B(O  44,C  42)                  1.3586         0.627920   
     46. B(O  44,C  40)                  1.4339         0.476275   
     47. B(O  45,C  42)                  1.1870         1.179639   
     48. B(O  45,H  32)                  2.6620         0.001001   
     49. B(H  46,H  33)                  2.5320         0.000345   
     50. B(H  46,H  23)                  2.0049         0.002392   
     51. B(H  46,C  40)                  1.0882         0.362547   
     52. B(H  47,O   1)                  2.2164         0.005146   
     53. B(H  47,C  43)                  1.0919         0.357659   
     54. B(H  47,O  41)                  2.0626         0.009055   
     55. B(C  49,O  48)                  1.1870         1.179491   
     56. B(O  50,C  49)                  1.3587         0.627829   
     57. B(O  51,C  49)                  1.3587         0.627793   
     58. B(C  52,O  50)                  1.4339         0.476323   
     59. B(C  53,C  52)                  1.5303         0.373214   
     60. B(C  53,O  51)                  1.4338         0.476431   
     61. B(H  54,O   0)                  2.2913         0.003908   
     62. B(H  54,C  52)                  1.0917         0.357806   
     63. B(H  54,O  50)                  2.0626         0.009054   
     64. B(H  54,C   8)                  2.6385         0.001219   
     65. B(H  54,H  32)                  2.5154         0.000367   
     66. B(H  55,C  52)                  1.0882         0.362510   
     67. B(H  56,C  53)                  1.0919         0.357546   
     68. B(H  57,C  53)                  1.0882         0.362488   
     69. A(C   8,O   0,H  32)          109.3372         0.367738   
     70. A(H  32,O   0,H  54)           91.8400         0.165533   
     71. A(C   8,O   0,H  54)           88.6006         0.181664   
     72. A(C  10,O   1,H  47)          115.4738         0.187737   
     73. A(C  10,O   1,H  33)          110.2241         0.367760   
     74. A(H  33,O   1,H  47)          113.4495         0.170360   
     75. A(C   7,C   2,C   8)          117.9398         0.428728   
     76. A(C   3,C   2,C   7)          120.7171         0.406924   
     77. A(C   3,C   2,C   8)          121.3373         0.404392   
     78. A(C   2,C   3,C   9)          121.7561         0.405807   
     79. A(C   2,C   3,C   5)          120.7622         0.406601   
     80. A(C   5,C   3,C   9)          117.4734         0.429905   
     81. A(C   5,C   4,C  11)          120.6360         0.400117   
     82. A(C   5,C   4,C  10)          118.1526         0.430375   
     83. A(C  10,C   4,C  11)          121.1856         0.397131   
     84. A(C   3,C   5,H  20)          118.6968         0.352911   
     85. A(C   3,C   5,C   4)          122.7889         0.432218   
     86. A(C   4,C   5,H  20)          118.5043         0.354038   
     87. A(C   7,C   6,C  12)          120.7015         0.399631   
     88. A(C   7,C   6,C  13)          117.8075         0.433177   
     89. A(C  12,C   6,C  13)          121.4899         0.399472   
     90. A(C   6,C   7,H  21)          119.1160         0.353895   
     91. A(C   2,C   7,C   6)          122.6595         0.432402   
     92. A(C   2,C   7,H  21)          118.2172         0.353164   
     93. A(C  15,C   8,H  54)           97.7614         0.161914   
     94. A(O   0,C   8,C   2)          122.6978         0.426257   
     95. A(C   2,C   8,H  54)          109.8539         0.160969   
     96. A(O   0,C   8,H  54)           60.2433         0.161019   
     97. A(O   0,C   8,C  15)          117.0676         0.430683   
     98. A(C   2,C   8,C  15)          120.2249         0.430446   
     99. A(C   3,C   9,C  14)          121.0152         0.433101   
    100. A(C  14,C   9,H  22)          119.1529         0.355511   
    101. A(C   3,C   9,H  22)          119.7875         0.352376   
    102. A(O   1,C  10,C   4)          122.7239         0.427200   
    103. A(C   4,C  10,C  14)          120.1513         0.430622   
    104. A(O   1,C  10,C  14)          117.1105         0.430725   
    105. A(H  23,C  11,H  24)          106.4650         0.289226   
    106. A(C  16,C  11,H  24)          108.6815         0.328039   
    107. A(C   4,C  11,H  24)          107.9488         0.326305   
    108. A(C  16,C  11,H  23)          109.0704         0.327671   
    109. A(C   4,C  11,H  23)          110.1561         0.325941   
    110. A(C   4,C  11,C  16)          114.2187         0.371870   
    111. A(C   6,C  12,C  17)          113.4104         0.372336   
    112. A(H  25,C  12,H  26)          106.5255         0.289240   
    113. A(C  17,C  12,H  26)          108.9658         0.328456   
    114. A(C   6,C  12,H  26)          108.3618         0.325816   
    115. A(C  17,C  12,H  25)          109.1327         0.328575   
    116. A(C   6,C  12,H  25)          110.2052         0.325934   
    117. A(C   6,C  13,C  15)          121.0949         0.434818   
    118. A(C  15,C  13,H  27)          119.1768         0.355182   
    119. A(C   6,C  13,H  27)          119.7283         0.353784   
    120. A(C   9,C  14,H  28)          121.0350         0.355784   
    121. A(C   9,C  14,C  10)          120.4135         0.435687   
    122. A(C  10,C  14,H  28)          118.5423         0.354626   
    123. A(C  13,C  15,H  29)          121.1401         0.355561   
    124. A(C   8,C  15,H  29)          118.5924         0.354902   
    125. A(C   8,C  15,C  13)          120.2647         0.435784   
    126. A(C  18,C  16,H  30)          119.2537         0.367555   
    127. A(C  11,C  16,H  30)          115.7132         0.329386   
    128. A(C  11,C  16,C  18)          125.0328         0.419180   
    129. A(C  12,C  17,C  19)          125.2143         0.420694   
    130. A(C  19,C  17,H  31)          119.2437         0.367994   
    131. A(C  12,C  17,H  31)          115.5412         0.329976   
    132. A(H  34,C  18,H  35)          116.7794         0.292847   
    133. A(C  16,C  18,H  35)          121.6339         0.367945   
    134. A(C  16,C  18,H  34)          121.5788         0.368601   
    135. A(H  36,C  19,H  37)          116.7680         0.292868   
    136. A(C  17,C  19,H  37)          121.5907         0.368577   
    137. A(C  17,C  19,H  36)          121.6404         0.369032   
    138. A(C  11,H  23,H  46)          139.4597         0.140633   
    139. A(O   0,H  32,H  54)           65.5682         0.125244   
    140. A(O   1,H  33,H  46)           88.7709         0.124705   
    141. A(H  38,C  40,C  43)          112.7255         0.323926   
    142. A(O  44,C  40,H  46)          108.7686         0.335949   
    143. A(C  43,C  40,H  46)          113.6304         0.324628   
    144. A(H  38,C  40,H  46)          109.6482         0.290856   
    145. A(C  43,C  40,O  44)          102.9737         0.376407   
    146. A(H  38,C  40,O  44)          108.7466         0.335214   
    147. A(C  42,O  41,C  43)          109.8114         0.409684   
    148. A(O  44,C  42,O  45)          124.9135         0.482733   
    149. A(O  41,C  42,O  45)          124.9115         0.482716   
    150. A(O  41,C  42,O  44)          110.1750         0.430352   
    151. A(O  41,C  43,H  47)          108.7488         0.335218   
    152. A(C  40,C  43,H  47)          112.7191         0.323905   
    153. A(H  39,C  43,H  47)          109.6408         0.290832   
    154. A(C  40,C  43,O  41)          102.9813         0.376437   
    155. A(H  39,C  43,O  41)          108.7736         0.335968   
    156. A(H  39,C  43,C  40)          113.6309         0.324620   
    157. A(C  40,O  44,C  42)          109.8116         0.409664   
    158. A(H  23,H  46,H  33)           66.2355         0.097603   
    159. A(H  33,H  46,C  40)          124.9702         0.122521   
    160. A(H  23,H  46,C  40)          126.7234         0.140960   
    161. A(O   1,H  47,C  43)          126.8364         0.165149   
    162. A(O  50,C  49,O  51)          110.1754         0.430340   
    163. A(O  48,C  49,O  51)          124.9107         0.482704   
    164. A(O  48,C  49,O  50)          124.9139         0.482709   
    165. A(C  49,O  50,C  52)          109.8109         0.409660   
    166. A(C  49,O  51,C  53)          109.8095         0.409673   
    167. A(H  54,C  52,H  55)          109.6497         0.290852   
    168. A(C  53,C  52,H  55)          113.6294         0.324623   
    169. A(O  50,C  52,H  55)          108.7653         0.335949   
    170. A(C  53,C  52,H  54)          112.7230         0.323927   
    171. A(O  50,C  52,H  54)          108.7508         0.335220   
    172. A(O  50,C  52,C  53)          102.9748         0.376414   
    173. A(H  56,C  53,H  57)          109.6414         0.290816   
    174. A(C  52,C  53,H  57)          113.6329         0.324620   
    175. A(O  51,C  53,H  57)          108.7729         0.335959   
    176. A(C  52,C  53,H  56)          112.7175         0.323889   
    177. A(O  51,C  53,H  56)          108.7484         0.335192   
    178. A(O  51,C  53,C  52)          102.9814         0.376429   
    179. A(C   8,H  54,H  32)           43.5824         0.098365   
    180. A(O   0,H  54,C   8)           31.1561         0.108774   
    181. A(C   8,H  54,C  52)          136.2576         0.144615   
    182. A(O   0,H  54,H  32)           22.5918         0.101049   
    183. A(H  32,H  54,C  52)          156.5664         0.122888   
    184. A(O   0,H  54,C  52)          167.3257         0.160558   
    185. D(C   5,C   3,C   2,C   8)    126.1242         0.013153   
    186. D(C   5,C   3,C   2,C   7)    -52.9808         0.013153   
    187. D(C   9,C   3,C   2,C   8)    -54.9479         0.013153   
    188. D(C   9,C   3,C   2,C   7)    125.9471         0.013153   
    189. D(C   3,C   5,C   4,C  11)    177.5799         0.026461   
    190. D(H  20,C   5,C   3,C   2)     -2.1826         0.025428   
    191. D(H  20,C   5,C   4,C  11)     -1.2601         0.026461   
    192. D(C   3,C   5,C   4,C  10)     -0.5955         0.026461   
    193. D(C   4,C   5,C   3,C   2)    178.9795         0.025428   
    194. D(C   4,C   5,C   3,C   9)      0.0070         0.025428   
    195. D(H  20,C   5,C   3,C   9)    178.8449         0.025428   
    196. D(H  20,C   5,C   4,C  10)   -179.4355         0.026461   
    197. D(C   6,C   7,C   2,C   3)   -179.8475         0.025671   
    198. D(C   6,C   7,C   2,C   8)      1.0178         0.025671   
    199. D(H  21,C   7,C   2,C   3)     -0.8348         0.025671   
    200. D(H  21,C   7,C   6,C  12)      0.2566         0.026343   
    201. D(C   2,C   7,C   6,C  12)    179.2609         0.026343   
    202. D(H  21,C   7,C   2,C   8)   -179.9695         0.025671   
    203. D(C   2,C   7,C   6,C  13)     -0.3620         0.026343   
    204. D(H  21,C   7,C   6,C  13)   -179.3662         0.026343   
    205. D(H  54,C   8,C   2,C   3)    -67.9691         0.025880   
    206. D(C  15,C   8,C   2,C   7)     -0.9595         0.025880   
    207. D(C  15,C   8,C   2,C   3)    179.9114         0.025880   
    208. D(O   0,C   8,C   2,C   7)    177.8780         0.025880   
    209. D(O   0,C   8,C   2,C   3)     -1.2511         0.025880   
    210. D(H  54,C   8,O   0,H  32)     91.4593         0.032943   
    211. D(C  15,C   8,O   0,H  54)     83.2549         0.032943   
    212. D(C  15,C   8,O   0,H  32)    174.7142         0.032943   
    213. D(C   2,C   8,O   0,H  54)    -95.6171         0.032943   
    214. D(C   2,C   8,O   0,H  32)     -4.1578         0.032943   
    215. D(C  14,C   9,C   3,C   2)   -178.5975         0.024842   
    216. D(H  22,C   9,C   3,C   5)    177.9212         0.024842   
    217. D(C  14,C   9,C   3,C   5)      0.3641         0.024842   
    218. D(H  22,C   9,C   3,C   2)     -1.0404         0.024842   
    219. D(C  14,C  10,C   4,C  11)   -177.3400         0.024185   
    220. D(C  14,C  10,C   4,C   5)      0.8249         0.024185   
    221. D(C  14,C  10,O   1,H  33)   -161.8907         0.030645   
    222. D(C  14,C  10,O   1,H  47)     67.9235         0.030645   
    223. D(O   1,C  10,C   4,C   5)    179.4105         0.024185   
    224. D(O   1,C  10,C   4,C  11)      1.2456         0.024185   
    225. D(C   4,C  10,O   1,H  47)   -110.7025         0.030645   
    226. D(C   4,C  10,O   1,H  33)     19.4833         0.030645   
    227. D(H  24,C  11,C   4,C   5)      0.5418         0.011499   
    228. D(H  23,C  11,C   4,C  10)     62.7955         0.011499   
    229. D(H  23,C  11,C   4,C   5)   -115.3241         0.011499   
    230. D(C  16,C  11,C   4,C  10)    -60.3483         0.011499   
    231. D(C  16,C  11,C   4,C   5)    121.5322         0.011499   
    232. D(H  26,C  12,C   6,C   7)   -175.3752         0.011395   
    233. D(H  25,C  12,C   6,C  13)    120.4336         0.011395   
    234. D(H  25,C  12,C   6,C   7)    -59.1751         0.011395   
    235. D(C  17,C  12,C   6,C  13)   -116.8883         0.011395   
    236. D(C  17,C  12,C   6,C   7)     63.5030         0.011395   
    237. D(H  27,C  13,C   6,C  12)      0.0870         0.026217   
    238. D(H  27,C  13,C   6,C   7)    179.7067         0.026217   
    239. D(C  15,C  13,C   6,C  12)   -179.9880         0.026217   
    240. D(C  15,C  13,C   6,C   7)     -0.3683         0.026217   
    241. D(C   9,C  14,C  10,C   4)     -0.4797         0.026642   
    242. D(C   9,C  14,C  10,O   1)   -179.1430         0.026642   
    243. D(H  28,C  14,C   9,H  22)      1.1818         0.027752   
    244. D(H  28,C  14,C   9,C   3)    178.7542         0.027752   
    245. D(C  10,C  14,C   9,H  22)   -177.7034         0.027752   
    246. D(H  28,C  14,C  10,O   1)      1.9444         0.026642   
    247. D(C  10,C  14,C   9,C   3)     -0.1310         0.027752   
    248. D(H  28,C  14,C  10,C   4)   -179.3924         0.026642   
    249. D(H  29,C  15,C  13,H  27)      0.9631         0.027545   
    250. D(H  29,C  15,C  13,C   6)   -178.9623         0.027545   
    251. D(C   8,C  15,C  13,H  27)   -179.6651         0.027545   
    252. D(C   8,C  15,C  13,C   6)      0.4095         0.027545   
    253. D(H  29,C  15,C   8,C   2)    179.6626         0.029246   
    254. D(H  29,C  15,C   8,O   0)      0.7612         0.029246   
    255. D(C  13,C  15,C   8,H  54)   -118.1558         0.029246   
    256. D(C  13,C  15,C   8,C   2)      0.2750         0.029246   
    257. D(C  13,C  15,C   8,O   0)   -178.6264         0.029246   
    258. D(H  30,C  16,C  11,C   4)    -53.6444         0.012227   
    259. D(H  30,C  16,C  11,H  23)   -177.3740         0.012227   
    260. D(C  18,C  16,C  11,H  24)   -113.2472         0.012227   
    261. D(C  18,C  16,C  11,H  23)      2.4399         0.012227   
    262. D(C  18,C  16,C  11,C   4)    126.1695         0.012227   
    263. D(H  31,C  17,C  12,H  25)   -179.7943         0.012513   
    264. D(H  31,C  17,C  12,C   6)     56.9368         0.012513   
    265. D(C  19,C  17,C  12,H  26)    116.4855         0.012513   
    266. D(C  19,C  17,C  12,H  25)      0.5361         0.012513   
    267. D(C  19,C  17,C  12,C   6)   -122.7329         0.012513   
    268. D(H  35,C  18,C  16,H  30)   -179.6270         0.043592   
    269. D(H  35,C  18,C  16,C  11)      0.5653         0.043592   
    270. D(H  34,C  18,C  16,H  30)     -0.6802         0.043592   
    271. D(H  34,C  18,C  16,C  11)    179.5120         0.043592   
    272. D(H  37,C  19,C  17,H  31)   -179.7245         0.044385   
    273. D(H  37,C  19,C  17,C  12)     -0.0661         0.044385   
    274. D(H  36,C  19,C  17,H  31)      0.6338         0.044385   
    275. D(H  36,C  19,C  17,C  12)   -179.7078         0.044385   
    276. D(H  46,H  23,C  11,H  24)   -161.1141         0.115388   
    277. D(H  46,H  23,C  11,C  16)     81.7842         0.115388   
    278. D(H  46,H  23,C  11,C   4)    -44.3197         0.115388   
    279. D(H  54,H  32,O   0,C   8)    -89.1623         0.359495   
    280. D(H  46,H  33,O   1,H  47)     39.5612         0.320053   
    281. D(H  46,H  33,O   1,C  10)    -91.6946         0.320053   
    282. D(O  45,C  42,O  41,C  43)   -172.8684         0.031978   
    283. D(O  44,C  42,O  41,C  43)      7.1299         0.031978   
    284. D(H  47,C  43,O  41,C  42)    102.6883         0.019413   
    285. D(H  39,C  43,O  41,C  42)   -137.9527         0.019413   
    286. D(O  41,C  43,C  40,H  46)    137.5696         0.011123   
    287. D(O  41,C  43,C  40,O  44)     20.1056         0.011123   
    288. D(O  41,C  43,C  40,H  38)    -96.8985         0.011123   
    289. D(H  39,C  43,C  40,H  46)   -104.9554         0.011123   
    290. D(C  40,C  43,O  41,C  42)    -17.1002         0.019413   
    291. D(H  39,C  43,C  40,O  44)    137.5805         0.011123   
    292. D(H  39,C  43,C  40,H  38)     20.5765         0.011123   
    293. D(C  40,O  44,C  42,O  45)   -172.8668         0.028982   
    294. D(C  40,O  44,C  42,O  41)      7.1348         0.028982   
    295. D(C  42,O  44,C  40,H  46)   -137.9472         0.017889   
    296. D(C  42,O  44,C  40,C  43)    -17.1018         0.017889   
    297. D(C  42,O  44,C  40,H  38)    102.6890         0.017889   
    298. D(H  33,H  46,C  40,C  43)    -42.6461         0.134694   
    299. D(H  33,H  46,C  40,H  38)   -169.7996         0.134694   
    300. D(H  23,H  46,C  40,O  44)    -13.3347         0.134694   
    301. D(H  23,H  46,C  40,C  43)   -127.3819         0.134694   
    302. D(H  23,H  46,C  40,H  38)    105.4646         0.134694   
    303. D(H  23,H  46,H  33,O   1)    116.5766         0.001501   
    304. D(C  40,H  46,H  33,O   1)     -2.7202         0.001501   
    305. D(H  33,H  46,H  23,C  11)    -23.9440         0.001551   
    306. D(C  40,H  46,H  23,C  11)     92.9819         0.001551   
    307. D(O   1,H  47,C  43,O  41)    -84.3849         0.130311   
    308. D(O   1,H  47,C  43,C  40)     29.1491         0.130311   
    309. D(O   1,H  47,C  43,H  39)    156.7991         0.130311   
    310. D(C  43,H  47,O   1,H  33)    -81.6859         0.001515   
    311. D(C  43,H  47,O   1,C  10)     46.9261         0.001515   
    312. D(C  52,O  50,C  49,O  51)      7.1372         0.031981   
    313. D(C  52,O  50,C  49,O  48)   -172.8663         0.031981   
    314. D(C  53,O  51,C  49,O  50)      7.1287         0.028969   
    315. D(C  53,O  51,C  49,O  48)   -172.8679         0.028969   
    316. D(H  55,C  52,O  50,C  49)   -137.9479         0.019398   
    317. D(H  54,C  52,O  50,C  49)    102.6860         0.019398   
    318. D(C  53,C  52,O  50,C  49)    -17.1045         0.019398   
    319. D(H  56,C  53,C  52,H  54)    146.0924         0.011123   
    320. D(H  56,C  53,C  52,O  50)    -96.8991         0.011123   
    321. D(O  51,C  53,C  52,H  55)    137.5682         0.011123   
    322. D(O  51,C  53,C  52,H  54)    -96.9007         0.011123   
    323. D(O  51,C  53,C  52,O  50)     20.1078         0.011123   
    324. D(H  57,C  53,O  51,C  49)   -137.9550         0.017901   
    325. D(H  56,C  53,O  51,C  49)    102.6859         0.017901   
    326. D(H  56,C  53,C  52,H  55)     20.5613         0.011123   
    327. D(C  52,C  53,O  51,C  49)    -17.1005         0.017901   
    328. D(C   8,H  54,C  52,O  50)     61.4849         0.150301   
    329. D(H  32,H  54,C  52,H  55)   -134.3998         0.150301   
    330. D(H  32,H  54,C  52,C  53)     97.9421         0.150301   
    331. D(H  32,H  54,C  52,O  50)    -15.5875         0.150301   
    332. D(O   0,H  54,C  52,C  53)    169.1551         0.150301   
    333. D(O   0,H  54,C  52,O  50)     55.6256         0.150301   
    334. D(C   8,H  54,H  32,O   0)     45.0942         0.001502   
    335. D(C  52,H  54,H  32,O   0)    147.2684         0.001502   
    336. D(H  32,H  54,C   8,C   2)     85.3450         0.001501   
    337. D(H  32,H  54,C   8,O   0)    -31.7295         0.001501   
    338. D(O   0,H  54,C   8,C  15)   -116.8131         0.001501   
    339. D(O   0,H  54,C   8,C   2)    117.0745         0.001501   
    340. D(C  52,H  54,C   8,C  15)     65.6682         0.001501   
    341. D(C  52,H  54,C   8,C   2)    -60.4442         0.001501   
    342. D(O   0,H  54,C  52,H  55)    -63.1868         0.150301   
    343. D(C  52,H  54,C   8,O   0)   -177.5187         0.001501   
    344. D(C   8,H  54,O   0,H  32)   -109.3059         0.001511   
    345. D(H  32,H  54,O   0,C   8)    109.3059         0.001511   
    346. D(C  52,H  54,O   0,H  32)   -101.4647         0.001511   
    347. D(C  52,H  54,O   0,C   8)      7.8412         0.001511   
    -----------------------------------------------------------------

Number of atoms                         .... 58
Number of degrees of freedom            .... 347


         *************************************************************
         *                GEOMETRY OPTIMIZATION CYCLE   1            *
         *************************************************************
---------------------------------
CARTESIAN COORDINATES (ANGSTROEM)
---------------------------------
  O      1.437814    1.319566    2.484684
  O     -3.623478   -2.417248    2.171130
  C      1.231651   -0.045244    0.481753
  C     -0.050130   -0.651017    0.927225
  C     -2.402476   -1.170184    0.480549
  C     -1.186196   -0.598894    0.114373
  C      2.986713    0.161723   -1.212158
  C      1.786408   -0.379016   -0.755791
  C      1.913645    0.891701    1.278398
  C     -0.165280   -1.311549    2.157246
  C     -2.477191   -1.835100    1.715273
  C     -3.618823   -1.037631   -0.414522
  C      3.557631   -0.245104   -2.557786
  C      3.642119    1.076648   -0.389678
  C     -1.361319   -1.896336    2.545002
  C      3.112649    1.442719    0.839609
  C     -4.204465   -2.352828   -0.860661
  C      2.682550    0.139176   -3.719013
  C     -5.475830   -2.712934   -0.709514
  C      2.194143   -0.703484   -4.621432
  H     -1.124608   -0.076153   -0.833487
  H      1.264032   -1.100600   -1.373921
  H      0.700818   -1.403726    2.801945
  H     -4.396123   -0.452025    0.089007
  H     -3.325103   -0.466490   -1.300044
  H      3.733308   -1.325105   -2.582971
  H      4.535971    0.232460   -2.676059
  H      4.580769    1.513079   -0.711965
  H     -1.445131   -2.423986    3.486362
  H      3.612507    2.165592    1.471509
  H     -3.510374   -3.040985   -1.336643
  H      2.443957    1.197332   -3.796303
  H      0.566077    0.931718    2.640779
  H     -4.234882   -2.572655    1.436723
  H     -5.839075   -3.671079   -1.058956
  H     -6.202831   -2.054038   -0.245236
  H      1.571716   -0.362051   -5.439301
  H      2.404196   -1.767045   -4.578235
  H     -5.697379    1.180008    2.773796
  H     -5.565162   -0.204918    4.747695
  C     -4.979410    0.360976    2.698908
  O     -3.570690    0.267356    4.540055
  C     -2.926997    0.917682    3.535673
  C     -4.758470   -0.355332    4.033000
  O     -3.685799    0.907229    2.408721
  O     -1.856533    1.421980    3.629265
  H     -5.267846   -0.305487    1.888528
  H     -4.570100   -1.423953    3.911729
  O     -2.989593    3.047385   -0.369510
  C     -2.028334    3.530210    0.132396
  O     -0.745069    3.237459   -0.204569
  O     -2.052220    4.455630    1.126924
  C      0.155382    3.875399    0.710948
  C     -0.724539    4.936833    1.374877
  H      0.523134    3.129715    1.418486
  H      0.990172    4.289924    0.149308
  H     -0.616641    5.921557    0.915526
  H     -0.575977    5.016445    2.449946

----------------------------
CARTESIAN COORDINATES (A.U.)
----------------------------
  NO LB      ZA    FRAG     MASS         X           Y           Z
   0 O     8.0000    0    15.999    2.717075    2.493619    4.695373
   1 O     8.0000    0    15.999   -6.847382   -4.567936    4.102840
   2 C     6.0000    0    12.011    2.327483   -0.085499    0.910381
   3 C     6.0000    0    12.011   -0.094731   -1.230245    1.752200
   4 C     6.0000    0    12.011   -4.540022   -2.211328    0.908105
   5 C     6.0000    0    12.011   -2.241585   -1.131745    0.216134
   6 C     6.0000    0    12.011    5.644071    0.305613   -2.290647
   7 C     6.0000    0    12.011    3.375823   -0.716237   -1.428238
   8 C     6.0000    0    12.011    3.616264    1.685071    2.415823
   9 C     6.0000    0    12.011   -0.312334   -2.478468    4.076604
  10 C     6.0000    0    12.011   -4.681212   -3.467836    3.241396
  11 C     6.0000    0    12.011   -6.838585   -1.960839   -0.783334
  12 C     6.0000    0    12.011    6.722948   -0.463179   -4.833515
  13 C     6.0000    0    12.011    6.882607    2.034569   -0.736384
  14 C     6.0000    0    12.011   -2.572520   -3.583556    4.809356
  15 C     6.0000    0    12.011    5.882053    2.726345    1.586632
  16 C     6.0000    0    12.011   -7.945288   -4.446201   -1.626414
  17 C     6.0000    0    12.011    5.069285    0.263004   -7.027917
  18 C     6.0000    0    12.011  -10.347819   -5.126702   -1.340788
  19 C     6.0000    0    12.011    4.146330   -1.329392   -8.733241
  20 H     1.0000    0     1.008   -2.125202   -0.143908   -1.575063
  21 H     1.0000    0     1.008    2.388675   -2.079833   -2.596335
  22 H     1.0000    0     1.008    1.324354   -2.652657    5.294908
  23 H     1.0000    0     1.008   -8.307468   -0.854204    0.168199
  24 H     1.0000    0     1.008   -6.283535   -0.881539   -2.456726
  25 H     1.0000    0     1.008    7.054931   -2.504085   -4.881108
  26 H     1.0000    0     1.008    8.571742    0.439286   -5.057019
  27 H     1.0000    0     1.008    8.656399    2.859304   -1.345419
  28 H     1.0000    0     1.008   -2.730902   -4.580669    6.588269
  29 H     1.0000    0     1.008    6.826649    4.092376    2.780749
  30 H     1.0000    0     1.008   -6.633646   -5.746630   -2.525890
  31 H     1.0000    0     1.008    4.618409    2.262630   -7.173973
  32 H     1.0000    0     1.008    1.069731    1.760692    4.990349
  33 H     1.0000    0     1.008   -8.002767   -4.861613    2.715012
  34 H     1.0000    0     1.008  -11.034252   -6.937333   -2.001137
  35 H     1.0000    0     1.008  -11.721651   -3.881570   -0.463429
  36 H     1.0000    0     1.008    2.970112   -0.684178  -10.278789
  37 H     1.0000    0     1.008    4.543272   -3.339232   -8.651611
  38 H     1.0000    0     1.008  -10.766486    2.229892    5.241715
  39 H     1.0000    0     1.008  -10.516633   -0.387240    8.971843
  40 C     6.0000    0    12.011   -9.409721    0.682145    5.100198
  41 O     8.0000    0    15.999   -6.747627    0.505229    8.579461
  42 C     6.0000    0    12.011   -5.531223    1.734168    6.681453
  43 C     6.0000    0    12.011   -8.992205   -0.671481    7.621265
  44 O     8.0000    0    15.999   -6.965151    1.714414    4.551824
  45 O     8.0000    0    15.999   -3.508339    2.687153    6.858318
  46 H     1.0000    0     1.008   -9.954786   -0.577286    3.568800
  47 H     1.0000    0     1.008   -8.636238   -2.690881    7.392097
  48 O     8.0000    0    15.999   -5.649512    5.758723   -0.698273
  49 C     6.0000    0    12.011   -3.832996    6.671130    0.250192
  50 O     8.0000    0    15.999   -1.407977    6.117911   -0.386579
  51 O     8.0000    0    15.999   -3.878135    8.419921    2.129578
  52 C     6.0000    0    12.011    0.293630    7.323443    1.343497
  53 C     6.0000    0    12.011   -1.369180    9.329262    2.598142
  54 H     1.0000    0     1.008    0.988579    5.914304    2.680549
  55 H     1.0000    0     1.008    1.871154    8.106781    0.282151
  56 H     1.0000    0     1.008   -1.165282   11.190122    1.730094
  57 H     1.0000    0     1.008   -1.088438    9.479708    4.629727

--------------------------------
INTERNAL COORDINATES (ANGSTROEM)
--------------------------------
 O      0   0   0     0.000000000000     0.00000000     0.00000000
 O      1   0   0     6.299109015469     0.00000000     0.00000000
 C      1   2   0     2.432477184017    63.77259403     0.00000000
 C      3   1   2     1.486057732596    93.15218861     0.58783938
 C      2   1   3     2.429830812457    47.65529728   324.53868438
 C      5   2   1     1.392765127116   146.33297007    25.01054443
 C      3   1   2     2.447940990232   117.48890922   179.81581447
 C      7   3   1     1.393342339766    28.70754247   181.76941718
 C      1   2   3     1.365506986478    92.87369626   359.19242297
 C      4   3   1     1.400897592788   121.75614782   304.46020474
 C      2   1   3     1.364066290292    24.25140510   355.73556696
 C      5   2   1     1.515988967855    93.00848149   207.01517430
 C      7   3   1     1.517289739227   149.40515424   180.52066115
 C      7   3   1     1.393957432954    89.10043641     1.44921383
 C     10   4   3     1.386664822369   121.01521184   181.40245049
 C     14   7   3     1.387621463866   121.09489359   359.45779932
 C     12   5   2     1.507235868409   114.21874749   300.24080384
 C     13   7   3     1.503956518596   113.41037361    64.20053130
 C     17  12   5     1.329996141080   125.03280575   126.16949595
 C     18  13   7     1.327771338650   125.21433088   237.26710827
 H      6   5   2     1.084200528166   118.50434585   181.06672281
 H      8   7   3     1.084271814958   119.11598599   180.99577981
 H     10   4   3     1.083632300487   119.78749096   358.95962538
 H     12   5   2     1.095751179391   110.15606776    63.38451788
 H     12   5   2     1.093901947679   107.94876114   179.25040547
 H     13   7   3     1.094485766716   110.20517349   301.52244796
 H     13   7   3     1.095082216709   108.36178346   185.32231912
 H     14   7   3     1.084160995490   119.72830541   179.53278114
 H     15  10   4     1.082403607263   121.03503233   178.75423043
 H     16  14   7     1.082451347417   121.14006662   181.03770271
 H     17  12   5     1.087143487990   115.71324800   306.35562402
 H     18  13   7     1.087472218739   115.54120908    56.93676244
 H      1   2   3     0.966807294162    17.36414623   161.06656350
 H      2   1   3     0.968152591889   129.82187571   314.76640006
 H     19  17  12     1.082634704119   121.57877540   179.51202468
 H     19  17  12     1.085462116120   121.63393016     0.56525635
 H     20  18  13     1.083006032437   121.64038358   180.29223249
 H     20  18  13     1.084965599182   121.59069546   359.93385622
 H     24  12   5     3.400719486878   152.96171951   353.57809223
 H     39  24  12     2.414907621413   110.43414979   311.21856748
 C     39  24  12     1.091742465063    48.25451259   334.41640477
 O     40  39  24     2.060115292867    80.74381511    72.12730710
 C     42  40  39     1.358694189283   130.00815822   352.42230551
 C     40  39  24     1.088194183070    65.35619930    31.92163451
 O     43  42  40     1.358642458509   110.17495284   341.19818950
 O     43  42  40     1.187000020948   124.91153267   161.19986723
 H     41  39  24     1.088156335272   109.64822186   322.38040087
 H     44  40  39     1.091851189431   109.64081811   223.58181038
 O     45  43  42     3.575407733509   122.08471733   165.50556196
 C     49  45  43     1.187033992830    94.16360098     1.62564970
 O     50  49  45     1.358681967926   124.91385894   104.59577791
 O     50  49  45     1.358697589580   124.91069370   284.59183493
 C     51  50  49     1.433858933101   109.81088751   187.13371916
 C     52  50  49     1.433797245050   109.80947653   187.13213980
 H     53  51  50     1.091739442331   108.75083211   102.68595637
 H     53  51  50     1.088184253674   108.76534127   222.05205467
 H     54  52  50     1.091937699771   108.74837772   102.68593931
 H     54  52  50     1.088200873037   108.77291505   222.04501059

---------------------------
INTERNAL COORDINATES (A.U.)
---------------------------
 O      0   0   0     0.000000000000     0.00000000     0.00000000
 O      1   0   0    11.903590926951     0.00000000     0.00000000
 C      1   2   0     4.596715704804    63.77259403     0.00000000
 C      3   1   2     2.808242133803    93.15218861     0.58783938
 C      2   1   3     4.591714787307    47.65529728   324.53868438
 C      5   2   1     2.631944659126   146.33297007    25.01054443
 C      3   1   2     4.625938063539   117.48890922   179.81581447
 C      7   3   1     2.633035432955    28.70754247   181.76941718
 C      1   2   3     2.580434238400    92.87369626   359.19242297
 C      4   3   1     2.647312792039   121.75614782   304.46020474
 C      2   1   3     2.577711717166    24.25140510   355.73556696
 C      5   2   1     2.864803971292    93.00848149   207.01517430
 C      7   3   1     2.867262072948   149.40515424   180.52066115
 C      7   3   1     2.634197790626    89.10043641     1.44921383
 C     10   4   3     2.620416753820   121.01521184   181.40245049
 C     14   7   3     2.622224544257   121.09489359   359.45779932
 C     12   5   2     2.848263010516   114.21874749   300.24080384
 C     13   7   3     2.842065937473   113.41037361    64.20053130
 C     17  12   5     2.513328465814   125.03280575   126.16949595
 C     18  13   7     2.509124198518   125.21433088   237.26710827
 H      6   5   2     2.048842072487   118.50434585   181.06672281
 H      8   7   3     2.048976785000   119.11598599   180.99577981
 H     10   4   3     2.047768277792   119.78749096   358.95962538
 H     12   5   2     2.070669639971   110.15606776    63.38451788
 H     12   5   2     2.067175098476   107.94876114   179.25040547
 H     13   7   3     2.068278356568   110.20517349   301.52244796
 H     13   7   3     2.069405483707   108.36178346   185.32231912
 H     14   7   3     2.048767366556   119.72830541   179.53278114
 H     15  10   4     2.045446384095   121.03503233   178.75423043
 H     16  14   7     2.045536599912   121.14006662   181.03770271
 H     17  12   5     2.054403460577   115.71324800   306.35562402
 H     18  13   7     2.055024671665   115.54120908    56.93676244
 H      1   2   3     1.827001010243    17.36414623   161.06656350
 H      2   1   3     1.829543254516   129.82187571   314.76640006
 H     19  17  12     2.045883093864   121.57877540   179.51202468
 H     19  17  12     2.051226128213   121.63393016     0.56525635
 H     20  18  13     2.046584802691   121.64038358   180.29223249
 H     20  18  13     2.050287847180   121.59069546   359.93385622
 H     24  12   5     6.426428488488   152.96171951   353.57809223
 H     39  24  12     4.563514043189   110.43414979   311.21856748
 C     39  24  12     2.063094267741    48.25451259   334.41640477
 O     40  39  24     3.893053707821    80.74381511    72.12730710
 C     42  40  39     2.567559917495   130.00815822   352.42230551
 C     40  39  24     2.056388986528    65.35619930    31.92163451
 O     43  42  40     2.567462160500   110.17495284   341.19818950
 O     43  42  40     2.243104960551   124.91153267   161.19986723
 H     41  39  24     2.056317464555   109.64822186   322.38040087
 H     44  40  39     2.063299727021   109.64081811   223.58181038
 O     45  43  42     6.756541433436   122.08471733   165.50556196
 C     49  45  43     2.243169158103    94.16360098     1.62564970
 O     50  49  45     2.567536822477   124.91385894   104.59577791
 O     50  49  45     2.567566343126   124.91069370   284.59183493
 C     51  50  49     2.709600698237   109.81088751   187.13371916
 C     52  50  49     2.709484124715   109.80947653   187.13213980
 H     53  51  50     2.063088555606   108.75083211   102.68595637
 H     53  51  50     2.056370222690   108.76534127   222.05205467
 H     54  52  50     2.063463207871   108.74837772   102.68593931
 H     54  52  50     2.056401628733   108.77291505   222.04501059

---------------------
BASIS SET INFORMATION
---------------------
There are 3 groups of distinct atoms

 Group   1 Type O   : 11s6p2d1f contracted to 5s3p2d1f pattern {62111/411/11/1}
 Group   2 Type C   : 11s6p2d1f contracted to 5s3p2d1f pattern {62111/411/11/1}
 Group   3 Type H   : 5s1p contracted to 3s1p pattern {311/1}

Atom   0O    basis set group =>   1
Atom   1O    basis set group =>   1
Atom   2C    basis set group =>   2
Atom   3C    basis set group =>   2
Atom   4C    basis set group =>   2
Atom   5C    basis set group =>   2
Atom   6C    basis set group =>   2
Atom   7C    basis set group =>   2
Atom   8C    basis set group =>   2
Atom   9C    basis set group =>   2
Atom  10C    basis set group =>   2
Atom  11C    basis set group =>   2
Atom  12C    basis set group =>   2
Atom  13C    basis set group =>   2
Atom  14C    basis set group =>   2
Atom  15C    basis set group =>   2
Atom  16C    basis set group =>   2
Atom  17C    basis set group =>   2
Atom  18C    basis set group =>   2
Atom  19C    basis set group =>   2
Atom  20H    basis set group =>   3
Atom  21H    basis set group =>   3
Atom  22H    basis set group =>   3
Atom  23H    basis set group =>   3
Atom  24H    basis set group =>   3
Atom  25H    basis set group =>   3
Atom  26H    basis set group =>   3
Atom  27H    basis set group =>   3
Atom  28H    basis set group =>   3
Atom  29H    basis set group =>   3
Atom  30H    basis set group =>   3
Atom  31H    basis set group =>   3
Atom  32H    basis set group =>   3
Atom  33H    basis set group =>   3
Atom  34H    basis set group =>   3
Atom  35H    basis set group =>   3
Atom  36H    basis set group =>   3
Atom  37H    basis set group =>   3
Atom  38H    basis set group =>   3
Atom  39H    basis set group =>   3
Atom  40C    basis set group =>   2
Atom  41O    basis set group =>   1
Atom  42C    basis set group =>   2
Atom  43C    basis set group =>   2
Atom  44O    basis set group =>   1
Atom  45O    basis set group =>   1
Atom  46H    basis set group =>   3
Atom  47H    basis set group =>   3
Atom  48O    basis set group =>   1
Atom  49C    basis set group =>   2
Atom  50O    basis set group =>   1
Atom  51O    basis set group =>   1
Atom  52C    basis set group =>   2
Atom  53C    basis set group =>   2
Atom  54H    basis set group =>   3
Atom  55H    basis set group =>   3
Atom  56H    basis set group =>   3
Atom  57H    basis set group =>   3
---------------------------------
AUXILIARY/J BASIS SET INFORMATION
---------------------------------
There are 3 groups of distinct atoms

 Group   1 Type O   : 12s5p4d2f1g contracted to 6s4p3d1f1g pattern {711111/2111/211/2/1}
 Group   2 Type C   : 12s5p4d2f1g contracted to 6s4p3d1f1g pattern {711111/2111/211/2/1}
 Group   3 Type H   : 5s2p1d contracted to 3s1p1d pattern {311/2/1}

Atom   0O    basis set group =>   1
Atom   1O    basis set group =>   1
Atom   2C    basis set group =>   2
Atom   3C    basis set group =>   2
Atom   4C    basis set group =>   2
Atom   5C    basis set group =>   2
Atom   6C    basis set group =>   2
Atom   7C    basis set group =>   2
Atom   8C    basis set group =>   2
Atom   9C    basis set group =>   2
Atom  10C    basis set group =>   2
Atom  11C    basis set group =>   2
Atom  12C    basis set group =>   2
Atom  13C    basis set group =>   2
Atom  14C    basis set group =>   2
Atom  15C    basis set group =>   2
Atom  16C    basis set group =>   2
Atom  17C    basis set group =>   2
Atom  18C    basis set group =>   2
Atom  19C    basis set group =>   2
Atom  20H    basis set group =>   3
Atom  21H    basis set group =>   3
Atom  22H    basis set group =>   3
Atom  23H    basis set group =>   3
Atom  24H    basis set group =>   3
Atom  25H    basis set group =>   3
Atom  26H    basis set group =>   3
Atom  27H    basis set group =>   3
Atom  28H    basis set group =>   3
Atom  29H    basis set group =>   3
Atom  30H    basis set group =>   3
Atom  31H    basis set group =>   3
Atom  32H    basis set group =>   3
Atom  33H    basis set group =>   3
Atom  34H    basis set group =>   3
Atom  35H    basis set group =>   3
Atom  36H    basis set group =>   3
Atom  37H    basis set group =>   3
Atom  38H    basis set group =>   3
Atom  39H    basis set group =>   3
Atom  40C    basis set group =>   2
Atom  41O    basis set group =>   1
Atom  42C    basis set group =>   2
Atom  43C    basis set group =>   2
Atom  44O    basis set group =>   1
Atom  45O    basis set group =>   1
Atom  46H    basis set group =>   3
Atom  47H    basis set group =>   3
Atom  48O    basis set group =>   1
Atom  49C    basis set group =>   2
Atom  50O    basis set group =>   1
Atom  51O    basis set group =>   1
Atom  52C    basis set group =>   2
Atom  53C    basis set group =>   2
Atom  54H    basis set group =>   3
Atom  55H    basis set group =>   3
Atom  56H    basis set group =>   3
Atom  57H    basis set group =>   3
--------------------------------------------------------------------------
WARNING: There was an error initializing an OpenFabrics device.

  Local host:   ga00
  Local device: mlx5_0
--------------------------------------------------------------------------


           ************************************************************
           *        Program running with 28 parallel MPI-processes    *
           *              working on a common directory               *
           ************************************************************
------------------------------------------------------------------------------
                             ORCA STARTUP CALCULATIONS
                           -- RI-GTO INTEGRALS CHOSEN --
------------------------------------------------------------------------------
------------------------------------------------------------------------------
                   ___                                                        
                  /   \      - P O W E R E D   B Y -                         
                 /     \                                                     
                 |  |  |   _    _      __       _____    __    __             
                 |  |  |  | |  | |    /  \     |  _  \  |  |  /  |          
                  \  \/   | |  | |   /    \    | | | |  |  | /  /          
                 / \  \   | |__| |  /  /\  \   | |_| |  |  |/  /          
                |  |  |   |  __  | /  /__\  \  |    /   |      \           
                |  |  |   | |  | | |   __   |  |    \   |  |\   \          
                \     /   | |  | | |  |  |  |  | |\  \  |  | \   \       
                 \___/    |_|  |_| |__|  |__|  |_| \__\ |__|  \__/        
                                                                              
                      - O R C A' S   B I G   F R I E N D -                    
                                      &                                       
                       - I N T E G R A L  F E E D E R -                       
                                                                              
 v1 FN, 2020, v2 2021, v3 2022-2024                                           
------------------------------------------------------------------------------


----------------------
SHARK INTEGRAL PACKAGE
----------------------

Number of atoms                             ...     58
Number of basis functions                   ...   1148
Number of shells                            ...    456
Maximum angular momentum                    ...      3
Integral batch strategy                     ... SHARK/LIBINT Hybrid
RI-J (if used) integral strategy            ... SPLIT-RIJ (Revised 2003 algorithm where possible)
Printlevel                                  ...      1
Contraction scheme used                     ... SEGMENTED contraction
Prescreening option                         ... SCHWARTZ
   Thresh                                   ... 2.500e-11
   Tcut                                     ... 2.500e-12
   Tpresel                                  ... 2.500e-12 
Coulomb Range Separation                    ... NOT USED
Exchange Range Separation                   ... NOT USED
Multipole approximations                    ... NOT USED
Finite Nucleus Model                        ... NOT USED
CABS basis                                  ... NOT available
Auxiliary Coulomb fitting basis             ... AVAILABLE
   # of basis functions in Aux-J            ...   1854
   # of shells in Aux-J                     ...    610
   Maximum angular momentum in Aux-J        ...      4
Auxiliary J/K fitting basis                 ... NOT available
Auxiliary Correlation fitting basis         ... NOT available
Auxiliary 'external' fitting basis          ... NOT available

Checking pre-screening integrals            ... done (  0.0 sec) Dimension = 456
Check shell pair data                       ... done (  0.0 sec)
Shell pair information
Shell pair cut-off parameter TPreSel        ...   2.5e-12
Total number of shell pairs                 ...    104196
Shell pairs after pre-screening             ...     63892
Total number of primitive shell pairs       ...    317988
Primitive shell pairs kept                  ...    123306
          la=0 lb=0:  16963 shell pairs
          la=1 lb=0:  18899 shell pairs
          la=1 lb=1:   5293 shell pairs
          la=2 lb=0:   8824 shell pairs
          la=2 lb=1:   5027 shell pairs
          la=2 lb=2:   1184 shell pairs
          la=3 lb=0:   4024 shell pairs
          la=3 lb=1:   2379 shell pairs
          la=3 lb=2:   1047 shell pairs
          la=3 lb=3:    252 shell pairs

Calculating one electron integrals          ... done (  0.1 sec)
Calculating RI/J V-Matrix + Cholesky decomp.... done (  0.2 sec)
Calculating Nuclear repulsion               ... done (  0.0 sec) ENN=   3368.659608707838 Eh

Diagonalization of the overlap matrix:
Smallest eigenvalue                        ... 5.121e-06
Time for diagonalization                   ...    0.117 sec
Threshold for overlap eigenvalues          ... 1.000e-07
Number of eigenvalues below threshold      ... 0
Time for construction of square roots      ...    0.091 sec
Total time needed                          ...    0.218 sec

-------------------
DFT GRID GENERATION
-------------------

General Integration Accuracy     IntAcc      ... 4.388
Radial Grid Type                 RadialGrid  ... OptM3 with GC (2021)
Angular Grid (max. ang.)         AngularGrid ... 4 (Lebedev-302)
Angular grid pruning method      GridPruning ... 4 (adaptive)
Weight generation scheme         WeightScheme... mBecke (2022)
Basis function cutoff            BFCut       ... 1.0000e-11
Integration weight cutoff        WCut        ... 1.0000e-14
Partially contracted basis set               ... off
Rotationally invariant grid construction     ... off
Angular grids for H and He will be reduced by one unit

Total number of grid points                  ...   273625
Total number of batches                      ...     4306
Average number of points per batch           ...       63
Average number of grid points per atom       ...     4718

--------------------
COSX GRID GENERATION
--------------------

GRIDX 1
-------
General Integration Accuracy     IntAcc      ... 3.816
Radial Grid Type                 RadialGrid  ... OptM3 with GC (2021)
Angular Grid (max. ang.)         AngularGrid ... 1 (Lebedev-50)
Angular grid pruning method      GridPruning ... 4 (adaptive)
Weight generation scheme         WeightScheme... mBecke (2022)
Basis function cutoff            BFCut       ... 1.0000e-11
Integration weight cutoff        WCut        ... 1.0000e-14
Partially contracted basis set               ... on
Rotationally invariant grid construction     ... off
Angular grids for H and He will be reduced by one unit

Total number of grid points                  ...    34639
Total number of batches                      ...      307
Average number of points per batch           ...      112
Average number of grid points per atom       ...      597
UseSFitting                                  ... on

GRIDX 2
-------
General Integration Accuracy     IntAcc      ... 4.020
Radial Grid Type                 RadialGrid  ... OptM3 with GC (2021)
Angular Grid (max. ang.)         AngularGrid ... 2 (Lebedev-110)
Angular grid pruning method      GridPruning ... 4 (adaptive)
Weight generation scheme         WeightScheme... mBecke (2022)
Basis function cutoff            BFCut       ... 1.0000e-11
Integration weight cutoff        WCut        ... 1.0000e-14
Partially contracted basis set               ... on
Rotationally invariant grid construction     ... off
Angular grids for H and He will be reduced by one unit

Total number of grid points                  ...    74685
Total number of batches                      ...      615
Average number of points per batch           ...      121
Average number of grid points per atom       ...     1288
UseSFitting                                  ... on

GRIDX 3
-------
General Integration Accuracy     IntAcc      ... 4.338
Radial Grid Type                 RadialGrid  ... OptM3 with GC (2021)
Angular Grid (max. ang.)         AngularGrid ... 3 (Lebedev-194)
Angular grid pruning method      GridPruning ... 4 (adaptive)
Weight generation scheme         WeightScheme... mBecke (2022)
Basis function cutoff            BFCut       ... 1.0000e-11
Integration weight cutoff        WCut        ... 1.0000e-14
Partially contracted basis set               ... on
Rotationally invariant grid construction     ... off
Angular grids for H and He will be reduced by one unit

Total number of grid points                  ...   162844
Total number of batches                      ...     1305
Average number of points per batch           ...      124
Average number of grid points per atom       ...     2808
UseSFitting                                  ... on
Initializing property integral containers    ... done (  0.0 sec)

SHARK setup successfully completed in   4.2 seconds

Maximum memory used throughout the entire STARTUP-calculation: 130.3 MB
[ga00:3164219] 27 more processes have sent help message help-mpi-btl-openib.txt / error in device init
[ga00:3164219] Set MCA parameter "orte_base_help_aggregate" to 0 to see all help / error messages
--------------------------------------------------------------------------
WARNING: There was an error initializing an OpenFabrics device.

  Local host:   ga00
  Local device: mlx5_0
--------------------------------------------------------------------------


           ************************************************************
           *        Program running with 28 parallel MPI-processes    *
           *              working on a common directory               *
           ************************************************************
-------------------------------------------------------------------------------
                                 ORCA GUESS
                   Start orbitals & Density for SCF / CASSCF
-------------------------------------------------------------------------------

------------
SCF SETTINGS
------------
Hamiltonian:
 Density Functional     Method          .... DFT(GTOs)
 Exchange Functional    Exchange        .... B88
   X-Alpha parameter    XAlpha          ....  0.666667
   Becke's b parameter  XBeta           ....  0.004200
 Correlation Functional Correlation     .... LYP
 LDA part of GGA corr.  LDAOpt          .... VWN-5
 Gradients option       PostSCFGGA      .... off
 Hybrid DFT is turned on
   Fraction HF Exchange ScalHFX         ....  0.200000
   Scaling of DF-GGA-X  ScalDFX         ....  0.720000
   Scaling of DF-GGA-C  ScalDFC         ....  0.810000
   Scaling of DF-LDA-C  ScalLDAC        ....  1.000000
   Perturbative correction              ....  0.000000
   NL short-range parameter             ....  4.800000
 RI-approximation to the Coulomb term is turned on
   Number of AuxJ basis functions       .... 1854
   RIJ-COSX (HFX calculated with COS-X)).... on


General Settings:
 Integral files         IntName         .... honokiol2-opt_EC2_closer
 Hartree-Fock type      HFTyp           .... RHF
 Total Charge           Charge          ....    0
 Multiplicity           Mult            ....    1
 Number of Electrons    NEL             ....  234
 Basis Dimension        Dim             .... 1148
 Nuclear Repulsion      ENuc            ....   3368.6596087078 Eh

Convergence Acceleration:
 AO-DIIS                CNVDIIS         .... on
   Start iteration      DIISMaxIt       ....    12
   Startup error        DIISStart       ....  0.200000
   # of expansion vecs  DIISMaxEq       ....     5
   Bias factor          DIISBfac        ....   1.050
   Max. coefficient     DIISMaxC        ....  10.000
 MO-DIIS                CNVKDIIS        .... off
 Trust-Rad. Augm. Hess. CNVTRAH         .... auto
   Auto Start mean grad. ratio tolernc. ....  1.125000
   Auto Start start iteration           ....    50
   Auto Start num. interpolation iter.  ....    10
   Max. Number of Micro iterations      ....    24
   Max. Number of Macro iterations      .... Maxiter - #DIIS iter
   Number of Davidson start vectors     ....     2
   Converg. threshold    (grad. norm)   ....   1.000e-05
   Grad. Scal. Fac. for Micro threshold ....   0.100
   Minimum threshold for Micro iter.    ....   1.000e-02
   NR start threshold (gradient norm)   ....   1.000e-04
   Initial trust radius                 ....   0.400
   Minimum AH scaling param. (alpha)    ....   1.000
   Maximum AH scaling param. (alpha)    .... 1000.000
   Quad. conv. algorithm                .... NR
   White noise on init. David. guess    .... on
   Maximum white noise                  ....   0.010
   Pseudo random numbers                .... off
   Inactive MOs                         .... canonical
   Orbital update algorithm             .... Taylor
   Preconditioner                       .... Diag
   Full preconditioner red. dimension   ....   250
 SOSCF                  CNVSOSCF        .... on
   Start iteration      SOSCFMaxIt      ....   150
   Startup grad/error   SOSCFStart      ....  0.003300
   Hessian update       SOSCFHessUp     .... L-BFGS
 Level Shifting         CNVShift        .... on
   Level shift para.    LevelShift      ....    0.2500
   Turn off err/grad.   ShiftErr        ....    0.0010
 Zerner damping         CNVZerner       .... off
 Static damping         CNVDamp         .... on
   Fraction old density DampFac         ....    0.7000
   Max. Damping (<1)    DampMax         ....    0.9800
   Min. Damping (>=0)   DampMin         ....    0.0000
   Turn off err/grad.   DampErr         ....    0.1000

SCF Procedure:
 Maximum # iterations   MaxIter         ....   125
 SCF integral mode      SCFMode         .... Direct
   Integral package                     .... SHARK and LIBINT hybrid scheme
 Reset frequency        DirectResetFreq ....    20
 Integral Threshold     Thresh          ....  2.500e-11 Eh
 Primitive CutOff       TCut            ....  2.500e-12 Eh

Convergence Tolerance:
 Convergence Check Mode ConvCheckMode   .... Total+1el-Energy
 Convergence forced     ConvForced      .... 0
 Energy Change          TolE            ....  1.000e-08 Eh
 1-El. energy change                    ....  1.000e-05 Eh
 Orbital Gradient       TolG            ....  1.000e-05
 Orbital Rotation angle TolX            ....  1.000e-05
 DIIS Error             TolErr          ....  5.000e-07

------------------------------
INITIAL GUESS: MODEL POTENTIAL
------------------------------
Loading Hartree-Fock densities                     ... done
Calculating cut-offs                               ... done
Initializing the effective Hamiltonian             ... done
Setting up the integral package (SHARK)            ... done
Starting the Coulomb interaction                   ... done (   0.3 sec)
Making the grid                                    ... done (   0.3 sec)
Mapping shells                                     ... done
Starting the XC term evaluation                    ... done (   0.2 sec)
  promolecular density results
     # of electrons  =    233.998186136
     EX              =   -196.788387690
     EC              =     -8.032236697
     EX+EC           =   -204.820624387
Transforming the Hamiltonian                       ... done (   0.1 sec)
Diagonalizing the Hamiltonian                      ... done (   0.1 sec)
Back transforming the eigenvectors                 ... done (   0.1 sec)
Now organizing SCF variables                       ... done
                      ------------------
                      INITIAL GUESS DONE (   1.1 sec)
                      ------------------
             **** ENERGY FILE WAS UPDATED (honokiol2-opt_EC2_closer.en.tmp) ****
Finished Guess after   2.1 sec
Maximum memory used throughout the entire GUESS-calculation: 114.8 MB
[ga00:3164416] 27 more processes have sent help message help-mpi-btl-openib.txt / error in device init
[ga00:3164416] Set MCA parameter "orte_base_help_aggregate" to 0 to see all help / error messages
--------------------------------------------------------------------------
WARNING: There was an error initializing an OpenFabrics device.

  Local host:   ga00
  Local device: mlx5_0
--------------------------------------------------------------------------


           ************************************************************
           *        Program running with 28 parallel MPI-processes    *
[...]
  54 H     1.0000    0     1.008   -1.174039    6.097169    2.214690
  55 H     1.0000    0     1.008   -1.780145    8.291694   -0.259178
  56 H     1.0000    0     1.008   -4.213479   10.877016    2.551183
  57 H     1.0000    0     1.008   -3.381845    8.802821    5.069816

--------------------------------
INTERNAL COORDINATES (ANGSTROEM)
--------------------------------
 O      0   0   0     0.000000000000     0.00000000     0.00000000
 O      1   0   0     6.323553404975     0.00000000     0.00000000
 C      1   2   0     2.444566411197    63.29034729     0.00000000
 C      3   1   2     1.488800191595    94.50454524   359.67181200
 C      2   1   3     2.430979497450    45.24958289   318.38687869
 C      5   2   1     1.392584974899   146.18643044    29.15572916
 C      3   1   2     2.450027363509   117.05628028   177.89881360
 C      7   3   1     1.393142800278    28.62900031   181.71671679
 C      1   2   3     1.360836897448    91.72610076   359.81802582
 C      4   3   1     1.396868877271   121.92966797   292.64260587
 C      2   1   3     1.372428315774    25.47629266   357.35504565
 C      5   2   1     1.516310726923    93.19334502   213.46369014
 C      7   3   1     1.517375410555   149.46969826   180.52121338
 C      7   3   1     1.394002878566    88.98492725     1.30684872
 C     10   4   3     1.387810213239   120.68641773   180.76767524
 C     14   7   3     1.386546572069   121.04799633   359.80576064
 C     12   5   2     1.506366128054   114.09501324   302.16725767
 C     13   7   3     1.503955115517   113.45839530    64.59558868
 C     17  12   5     1.330854144290   125.01943435   125.93984833
 C     18  13   7     1.327776635944   125.21440752   237.30863324
 H      6   5   2     1.083812186257   118.44076554   183.33125613
 H      8   7   3     1.084357898607   119.20421332   180.33646138
 H     10   4   3     1.083158497537   119.94130783   359.81613878
 H     12   5   2     1.094859206590   110.24500720    66.29678625
 H     12   5   2     1.093623272410   107.61251749   181.44748103
 H     13   7   3     1.094434782147   110.22517817   301.89588171
 H     13   7   3     1.095158120671   108.29168436   185.71655678
 H     14   7   3     1.084380992409   119.72551637   179.54824518
 H     15  10   4     1.082645190609   120.76132058   178.97554129
 H     16  14   7     1.082666940676   121.03245925   180.27331604
 H     17  12   5     1.087525004790   115.90996310   306.06831032
 H     18  13   7     1.087495750542   115.55087437    56.88020543
 H      1   2   3     0.970066394551    23.56660755   200.29030394
 H      2   1   3     0.969695885836   127.04264760   303.95292658
 H     19  17  12     1.082900903447   121.58571420   179.30557128
 H     19  17  12     1.085317834889   121.51716104     0.77169947
 H     20  18  13     1.083008539064   121.66668683   180.14713941
 H     20  18  13     1.084940750458   121.56157325   359.93639979
 H      2   1   3     4.697275215611    70.07701649   201.90969418
 H     39   2   1     2.415869416435    70.99832182   258.97276265
 C     39   2   1     1.089793098979    18.52940131   329.42269425
 O     40  39   2     2.060207593347    83.35627154    67.34485439
 C     42  40  39     1.345514500922   128.20245988   359.65433492
 C     40  39   2     1.088118662347    65.93567016    27.87843232
 O     43  42  40     1.345611951416   111.10643598   338.94359522
 O     43  42  40     1.196112867208   124.72682656   158.59481130
 H     41  39   2     1.086124952453   109.88663420    19.60082191
 H     44  40  39     1.089312004577   110.21683901   226.63682446
 O     24  12   5     2.726508863359   145.71245823    61.96015124
 C     49  24  12     1.193825005508   116.01193808   347.65505017
 O     50  49  24     1.347801597069   124.69166931    24.01137561
 O     50  49  24     1.350441350005   124.35647044   203.56564103
 C     51  50  49     1.437936531137   110.69229961   183.79583798
 C     52  50  49     1.436123796314   110.58753604   179.69770480
 H     53  51  50     1.088967850368   109.07012364   115.02229665
 H     53  51  50     1.089054004787   108.16968547   234.09629018
 H     54  52  50     1.089983623859   108.31249977   117.85906925
 H     54  52  50     1.088520602468   108.53850608   236.96391826

---------------------------
INTERNAL COORDINATES (A.U.)
---------------------------
 O      0   0   0     0.000000000000     0.00000000     0.00000000
 O      1   0   0    11.949784128627     0.00000000     0.00000000
 C      1   2   0     4.619561033346    63.29034729     0.00000000
 C      3   1   2     2.813424630245    94.50454524   359.67181200
 C      2   1   3     4.593885487358    45.24958289   318.38687869
 C      5   2   1     2.631604220772   146.18643044    29.15572916
 C      3   1   2     4.629880737645   117.05628028   177.89881360
 C      7   3   1     2.632658357969    28.62900031   181.71671679
 C      1   2   3     2.571609049111    91.72610076   359.81802582
 C      4   3   1     2.639699623039   121.92966797   292.64260587
 C      2   1   3     2.593513655251    25.47629266   357.35504565
 C      5   2   1     2.865412007812    93.19334502   213.46369014
 C      7   3   1     2.867423968295   149.46969826   180.52121338
 C      7   3   1     2.634283670387    88.98492725     1.30684872
 C     10   4   3     2.622581228881   120.68641773   180.76767524
 C     14   7   3     2.620193293138   121.04799633   359.80576064
 C     12   5   2     2.846619439437   114.09501324   302.16725767
 C     13   7   3     2.842063286037   113.45839530    64.59558868
 C     17  12   5     2.514949856901   125.01943435   125.93984833
 C     18  13   7     2.509134208953   125.21440752   237.30863324
 H      6   5   2     2.048108212633   118.44076554   183.33125613
 H      8   7   3     2.049139459522   119.20421332   180.33646138
 H     10   4   3     2.046872919975   119.94130783   359.81613878
 H     12   5   2     2.068984055657   110.24500720    66.29678625
 H     12   5   2     2.066648478538   107.61251749   181.44748103
 H     13   7   3     2.068182009696   110.22517817   301.89588171
 H     13   7   3     2.069548921407   108.29168436   185.71655678
 H     14   7   3     2.049183100483   119.72551637   179.54824518
 H     15  10   4     2.045902910458   120.76132058   178.97554129
 H     16  14   7     2.045944012129   121.03245925   180.27331604
 H     17  12   5     2.055124422845   115.90996310   306.06831032
 H     18  13   7     2.055069140327   115.55087437    56.88020543
 H      1   2   3     1.833159817421    23.56660755   200.29030394
 H      2   1   3     1.832459657420   127.04264760   303.95292658
 H     19  17  12     2.046386137691   121.58571420   179.30557128
 H     19  17  12     2.050953476200   121.51716104     0.77169947
 H     20  18  13     2.046589539530   121.66668683   180.14713941
 H     20  18  13     2.050240889897   121.56157325   359.93639979
 H      2   1   3     8.876563733161    70.07701649   201.90969418
 H     39   2   1     4.565331572378    70.99832182   258.97276265
 C     39   2   1     2.059410499707    18.52940131   329.42269425
 O     40  39   2     3.893228130451    83.35627154    67.34485439
 C     42  40  39     2.542653915963   128.20245988   359.65433492
 C     40  39   2     2.056246273045    65.93567016    27.87843232
 O     43  42  40     2.542838070708   111.10643598   338.94359522
 O     43  42  40     2.260325744282   124.72682656   158.59481130
 H     41  39   2     2.052478707354   109.88663420    19.60082191
 H     44  40  39     2.058501363044   110.21683901   226.63682446
 O     24  12   5     5.152355053458   145.71245823    61.96015124
 C     49  24  12     2.256002312237   116.01193808   347.65505017
 O     50  49  24     2.546975901322   124.69166931    24.01137561
 O     50  49  24     2.551964311432   124.35647044   203.56564103
 C     51  50  49     2.717306241810   110.69229961   183.79583798
 C     52  50  49     2.713880669441   110.58753604   179.69770480
 H     53  51  50     2.057851005840   109.07012364   115.02229665
 H     53  51  50     2.058013814098   108.16968547   234.09629018
 H     54  52  50     2.059770539553   108.31249977   117.85906925
 H     54  52  50     2.057005829796   108.53850608   236.96391826

--------------------------------------------------------------------------
WARNING: There was an error initializing an OpenFabrics device.

  Local host:   ga00
  Local device: mlx5_0
--------------------------------------------------------------------------
[ga00:3218066] [[9498,0],0] ORTE_ERROR_LOG: Data unpack had inadequate space in file util/show_help.c at line 513


           ************************************************************
           *        Program running with 28 parallel MPI-processes    *
           *              working on a common directory               *
           ************************************************************
------------------------------------------------------------------------------
                   ___                                                        
                  /   \      - P O W E R E D   B Y -                         
                 /     \                                                     
                 |  |  |   _    _      __       _____    __    __             
                 |  |  |  | |  | |    /  \     |  _  \  |  |  /  |          
                  \  \/   | |  | |   /    \    | | | |  |  | /  /          
                 / \  \   | |__| |  /  /\  \   | |_| |  |  |/  /          
                |  |  |   |  __  | /  /__\  \  |    /   |      \           
                |  |  |   | |  | | |   __   |  |    \   |  |\   \          
                \     /   | |  | | |  |  |  |  | |\  \  |  | \   \       
                 \___/    |_|  |_| |__|  |__|  |_| \__\ |__|  \__/        
                                                                              
                      - O R C A' S   B I G   F R I E N D -                    
                                      &                                       
                       - I N T E G R A L  F E E D E R -                       
                                                                              
 v1 FN, 2020, v2 2021, v3 2022-2024                                           
------------------------------------------------------------------------------


----------------------
SHARK INTEGRAL PACKAGE
----------------------

Number of atoms                             ...     58
Number of basis functions                   ...   1148
Number of shells                            ...    456
Maximum angular momentum                    ...      3
Integral batch strategy                     ... SHARK/LIBINT Hybrid
RI-J (if used) integral strategy            ... SPLIT-RIJ (Revised 2003 algorithm where possible)
Printlevel                                  ...      1
Contraction scheme used                     ... SEGMENTED contraction
Prescreening option                         ... SCHWARTZ
   Thresh                                   ... 2.500e-11
   Tcut                                     ... 2.500e-12
   Tpresel                                  ... 2.500e-12 
Coulomb Range Separation                    ... NOT USED
Exchange Range Separation                   ... NOT USED
Multipole approximations                    ... NOT USED
Finite Nucleus Model                        ... NOT USED
CABS basis                                  ... NOT available
Auxiliary Coulomb fitting basis             ... AVAILABLE
   # of basis functions in Aux-J            ...   1854
   # of shells in Aux-J                     ...    610
   Maximum angular momentum in Aux-J        ...      4
Auxiliary J/K fitting basis                 ... NOT available
Auxiliary Correlation fitting basis         ... NOT available
Auxiliary 'external' fitting basis          ... NOT available

Checking pre-screening integrals            ... done (  0.0 sec) Dimension = 456
Check shell pair data                       ... done (  0.0 sec)
Shell pair information
Shell pair cut-off parameter TPreSel        ...   2.5e-12
Total number of shell pairs                 ...    104196
Shell pairs after pre-screening             ...     62902
Total number of primitive shell pairs       ...    317988
Primitive shell pairs kept                  ...    121188
          la=0 lb=0:  16709 shell pairs
          la=1 lb=0:  18609 shell pairs
          la=1 lb=1:   5212 shell pairs
          la=2 lb=0:   8676 shell pairs
          la=2 lb=1:   4955 shell pairs
          la=2 lb=2:   1169 shell pairs
          la=3 lb=0:   3953 shell pairs
          la=3 lb=1:   2337 shell pairs
          la=3 lb=2:   1037 shell pairs
          la=3 lb=3:    245 shell pairs

Calculating one electron integrals          ... done (  0.1 sec)
Calculating RI/J V-Matrix + Cholesky decomp.... done (  0.2 sec)
Calculating Nuclear repulsion               ... done (  0.0 sec) ENN=   3336.958881566838 Eh

Diagonalization of the overlap matrix:
Smallest eigenvalue                        ... 5.170e-06
Time for diagonalization                   ...    0.115 sec
Threshold for overlap eigenvalues          ... 1.000e-07
Number of eigenvalues below threshold      ... 0
Time for construction of square roots      ...    0.091 sec
Total time needed                          ...    0.215 sec

-------------------
DFT GRID GENERATION
-------------------

General Integration Accuracy     IntAcc      ... 4.388
Radial Grid Type                 RadialGrid  ... OptM3 with GC (2021)
Angular Grid (max. ang.)         AngularGrid ... 4 (Lebedev-302)
Angular grid pruning method      GridPruning ... 4 (adaptive)
Weight generation scheme         WeightScheme... mBecke (2022)
Basis function cutoff            BFCut       ... 1.0000e-11
Integration weight cutoff        WCut        ... 1.0000e-14
Partially contracted basis set               ... off
Rotationally invariant grid construction     ... off
Angular grids for H and He will be reduced by one unit

Total number of grid points                  ...   273860
Total number of batches                      ...     4309
Average number of points per batch           ...       63
Average number of grid points per atom       ...     4722

--------------------
COSX GRID GENERATION
--------------------

GRIDX 1
-------
General Integration Accuracy     IntAcc      ... 3.816
Radial Grid Type                 RadialGrid  ... OptM3 with GC (2021)
Angular Grid (max. ang.)         AngularGrid ... 1 (Lebedev-50)
Angular grid pruning method      GridPruning ... 4 (adaptive)
Weight generation scheme         WeightScheme... mBecke (2022)
Basis function cutoff            BFCut       ... 1.0000e-11
Integration weight cutoff        WCut        ... 1.0000e-14
Partially contracted basis set               ... on
Rotationally invariant grid construction     ... off
Angular grids for H and He will be reduced by one unit

Total number of grid points                  ...    34720
Total number of batches                      ...      307
Average number of points per batch           ...      113
Average number of grid points per atom       ...      599
UseSFitting                                  ... on

GRIDX 2
-------
General Integration Accuracy     IntAcc      ... 4.020
Radial Grid Type                 RadialGrid  ... OptM3 with GC (2021)
Angular Grid (max. ang.)         AngularGrid ... 2 (Lebedev-110)
Angular grid pruning method      GridPruning ... 4 (adaptive)
Weight generation scheme         WeightScheme... mBecke (2022)
Basis function cutoff            BFCut       ... 1.0000e-11
Integration weight cutoff        WCut        ... 1.0000e-14
Partially contracted basis set               ... on
Rotationally invariant grid construction     ... off
Angular grids for H and He will be reduced by one unit

Total number of grid points                  ...    74822
Total number of batches                      ...      617
Average number of points per batch           ...      121
Average number of grid points per atom       ...     1290
UseSFitting                                  ... on

GRIDX 3
-------
General Integration Accuracy     IntAcc      ... 4.338
Radial Grid Type                 RadialGrid  ... OptM3 with GC (2021)
Angular Grid (max. ang.)         AngularGrid ... 3 (Lebedev-194)
Angular grid pruning method      GridPruning ... 4 (adaptive)
Weight generation scheme         WeightScheme... mBecke (2022)
Basis function cutoff            BFCut       ... 1.0000e-11
Integration weight cutoff        WCut        ... 1.0000e-14
Partially contracted basis set               ... on
Rotationally invariant grid construction     ... off
Angular grids for H and He will be reduced by one unit

Total number of grid points                  ...   163160
Total number of batches                      ...     1303
Average number of points per batch           ...      125
Average number of grid points per atom       ...     2813
UseSFitting                                  ... on
Initializing property integral containers    ... done (  0.0 sec)

SHARK setup successfully completed in   4.1 seconds

Maximum memory used throughout the entire STARTUP-calculation: 139.1 MB
[ga00:3218066] 26 more processes have sent help message help-mpi-btl-openib.txt / error in device init
[ga00:3218066] Set MCA parameter "orte_base_help_aggregate" to 0 to see all help / error messages
--------------------------------------------------------------------------
WARNING: There was an error initializing an OpenFabrics device.

  Local host:   ga00
  Local device: mlx5_0
--------------------------------------------------------------------------


           ************************************************************
           *        Program running with 28 parallel MPI-processes    *
           *              working on a common directory               *
           ************************************************************
Occupation numbers will be reassigned to an Aufbau configuration
             **** ENERGY FILE WAS UPDATED (honokiol2-opt_EC2_closer.en.tmp) ****
Finished Guess after   3.9 sec
Maximum memory used throughout the entire GUESS-calculation: 136.8 MB
[ga00:3218243] 27 more processes have sent help message help-mpi-btl-openib.txt / error in device init
[ga00:3218243] Set MCA parameter "orte_base_help_aggregate" to 0 to see all help / error messages
--------------------------------------------------------------------------
WARNING: There was an error initializing an OpenFabrics device.

  Local host:   ga00
  Local device: mlx5_0
--------------------------------------------------------------------------
[ga00:3218653] *** Process received signal ***
[ga00:3218653] Signal: Segmentation fault (11)
[ga00:3218653] Signal code: Address not mapped (1)
[ga00:3218653] Failing at address: (nil)
[ga00:3218653] [ 0] /usr/lib64/libpthread.so.0(+0x12cf0)[0x1550ef0d2cf0]
[ga00:3218653] [ 1] /usr/lib64/libc.so.6(+0xc84d2)[0x1550eedc24d2]
[ga00:3218653] [ 2] /home/yongsang/.openmpi/lib/libopen-rte.so.40(+0x2b27d)[0x1550f01bd27d]
[ga00:3218653] [ 3] /home/yongsang/.openmpi/lib/libopen-rte.so.40(orte_show_help_recv+0x147)[0x1550f01bd6f7]
[ga00:3218653] [ 4] /home/yongsang/.openmpi/lib/libopen-rte.so.40(orte_rml_base_process_msg+0x39b)[0x1550f021921b]
[ga00:3218653] [ 5] /home/yongsang/.openmpi/lib/libopen-pal.so.40(opal_libevent2022_event_base_loop+0x769)[0x1550eff075b9]
[ga00:3218653] [ 6] mpirun[0x400f39]
[ga00:3218653] [ 7] /usr/lib64/libc.so.6(__libc_start_main+0xe5)[0x1550eed34d85]
[ga00:3218653] [ 8] mpirun[0x400cde]
[ga00:3218653] *** End of error message ***

ORCA finished by error termination in LEANSCF
Calling Command: mpirun -np 28  /home/yongsang/orca_6_0_1_linux_x86-64_shared_openmpi416/orca_leanscf_mpi honokiol2-opt_EC2_closer.gbw honokiol2-opt_EC2_closer 
[file orca_tools/qcmsg.cpp, line 394]: 
  .... aborting the run

[file orca_tools/qcmsg.cpp, line 394]: 
  .... aborting the run

