
                                 *****************
                                 * O   R   C   A *
                                 *****************

                                            #,                                       
                                            ###                                      
                                            ####                                     
                                            #####                                    
                                            ######                                   
                                           ########,                                 
                                     ,,################,,,,,                         
                               ,,#################################,,                 
                          ,,##########################################,,             
                       ,#########################################, ''#####,          
                    ,#############################################,,   '####,        
                  ,##################################################,,,,####,       
                ,###########''''           ''''###############################       
              ,#####''   ,,,,##########,,,,          '''####'''          '####       
            ,##' ,,,,###########################,,,                        '##       
           ' ,,###''''                  '''############,,,                           
         ,,##''                                '''############,,,,        ,,,,,,###''
      ,#''                                            '''#######################'''  
     '                                                          ''''####''''         
             ,#######,   #######,   ,#######,      ##                                
            ,#'     '#,  ##    ##  ,#'     '#,    #''#        ,####,   ,####,        
            ##       ##  ##   ,#'  ##            #'  '#       #'       #'  '#        
            ##       ##  #######   ##           ,######,      #####,   #    #        
            '#,     ,#'  ##    ##  '#,     ,#' ,#      #,     #,   #   #,  ,#        
             '#######'   ##     ##  '#######'  #'      '#     '####' # '####'        



                #########################################################
                #                        -***-                          #
                #          Department of theory and spectroscopy        #
                #                                                       #
                #                      Frank Neese                      #
                #                                                       #
                #     Directorship, Architecture, Infrastructure        #
                #                    SHARK, DRIVERS                     #
                #        Core code/Algorithms in most modules           #
                #                                                       #
                #        Max Planck Institute fuer Kohlenforschung      #
                #                Kaiser Wilhelm Platz 1                 #
                #                 D-45470 Muelheim/Ruhr                 #
                #                      Germany                          #
                #                                                       #
                #                  All rights reserved                  #
                #                        -***-                          #
                #########################################################


                         Program Version 6.0.1  -  RELEASE   -


 With contributions from (in alphabetic order):
[Max-Planck-Institut fuer Kohlenforschung]                               
  Daniel Aravena         : Magnetic Suceptibility                        
  Michael Atanasov       : Ab Initio Ligand Field Theory (pilot matlab implementation)
  Alexander A. Auer      : GIAO ZORA, VPT2 properties, NMR spectrum      
  Ute Becker             : All parallelization in ORCA, NUMFREQ, NUMCALC 
  Giovanni Bistoni       : ED, misc. LED, open-shell LED, HFLD           
  Martin Brehm           : Molecular dynamics                            
  Dmytro Bykov           : pre 5.0 version of the SCF Hessian            
  Marcos Casanova-Páez   : Triplet and SCS-CIS(D). UHF-(DLPNO)-IP/EA/STEOM-CCSD. UHF-CVS-IP/STEOM-CCSD   
  Vijay G. Chilkuri      : MRCI spin determinant printing, contributions to CSF-ICE 
  Pauline Colinet        : FMM embedding                                 
  Dipayan Datta          : RHF DLPNO-CCSD density                        
  Achintya Kumar Dutta   : EOM-CC, STEOM-CC                              
  Nicolas Foglia         : Exact transition moments, OPA infrastructure, MCD improvements    
  Dmitry Ganyushin       : Spin-Orbit,Spin-Spin,Magnetic field MRCI      
  Miquel Garcia-Rates    : C-PCM and meta-GGA Hessian, CCSD/C-PCM, Gaussian charge scheme 
  Tiago L. C. Gouveia    : GS-ROHF, GS-ROCIS                             
  Yang Guo               : DLPNO-NEVPT2, F12-NEVPT2, CIM, IAO-localization        
  Andreas Hansen         : Spin unrestricted coupled pair/coupled cluster methods 
  Ingolf Harden          : AUTO-CI MPn and infrastructure                
  Benjamin Helmich-Paris : MC-RPA, TRAH-(SCF,CASSCF), AVAS, COSX integrals, SCF dyn. polar. 
  Lee Huntington         : MR-EOM, pCC                                   
  Robert Izsak           : Overlap fitted RIJCOSX, COSX-SCS-MP3, EOM     
  Riya Kayal             : Wick's Theorem for AUTO-CI, AUTO-CI UHF-CCSDT 
  Emily Kempfer          : AUTO-CI, RHF CISDT and CCSDT                  
  Christian Kollmar      : KDIIS, OOCD, Brueckner-CCSD(T), CCSD density, CASPT2, CASPT2-K, improved NEVPT2 
  Axel Koslowski         : Symmetry handling                             
  Simone Kossmann        : meta-GGA functionals, TD-DFT gradient, OOMP2, (MP2 Hessian; deprecated post 5.0) 
  Lucas Lang             : DCDCAS                                        
  Marvin Lechner         : AUTO-CI (C++ implementation), FIC-MRCC        
  Spencer Leger          : CASSCF response                               
  Dagmar Lenk            : GEPOL surface, SMD, ORCA-2-JSON               
  Dimitrios Liakos       : Extrapolation schemes; Compound Job, initial MDCI parallelization 
  Dimitrios Manganas     : Further ROCIS development; embedding schemes. LFT, Crystal Embedding 
  Dimitrios Pantazis     : SARC Basis sets                               
  Anastasios Papadopoulos: AUTO-CI, single reference methods and gradients 
  Taras Petrenko         : pre 6.0 DFT Hessian and TD-DFT gradient, (ASA, deprecated), ECA, 1-Electron XAS/XES, NRVS 
  Peter Pinski           : DLPNO-MP2, DLPNO-MP2 Gradient                 
  Christoph Reimann      : Effective Core Potentials                     
  Marius Retegan         : Local ZFS, SOC                                
  Christoph Riplinger    : Optimizer, TS searches, QM/MM, DLPNO-CCSD(T), (RO)-DLPNO pert. Triples 
  Michael Roemelt        : Original ROCIS implementation                 
  Masaaki Saitow         : Open-shell DLPNO-CCSD energy and density      
  Barbara Sandhoefer     : DKH picture change effects                    
  Kantharuban Sivalingam : CASSCF convergence/infrastructure, NEVPT2 and variants, FIC-MRCI 
  Bernardo de Souza      : ESD, SOC TD-DFT                               
  Georgi L. Stoychev     : AutoAux, RI-MP2 NMR, DLPNO-MP2 response, X2C  
  Van Anh Tran           : RI-MP2 g-tensors                              
  Willem Van den Heuvel  : Paramagnetic NMR                              
  Zikuan Wang            : NOTCH, Electric field optimization            
  Frank Wennmohs         : Technical directorship and infrastructure     
  Hang Xu                : AUTO-CI-Response properties                   
                                                                         
[FACCTs GmbH]                                                            
  Markus Bursch, Miquel Garcia-Rates, Christoph Riplinger, Bernardo de Souza, Georgi L. Stoychev 
                                                                 
  APM, Basis sets (HGBS, AHGBS, def-TZVP (Ac-Lr), def2-XVPD (La-Lu)), CI-OPT, improved COSX, DLPNO-Multilevel,           
  DOCKER, DRACO, updates on ESD, GOAT, IRC, LR-CPCM, MBIS, meta-GGA TD-DFT gradient, ML-optimized integration grids, 
  MM, NACMEs, nearIR, NEB, NEB-TS, NL-DFT gradient (VV10), 2- and 3-layer-ONIOM, interface openCOSMO-RS, QMMM,   
  Crystal-QMMM, SF, symmetry and pop. for TD-DFT, r2SCAN hybrids, SOLVATOR                                   
                                                                         
[Other institutions]                                                     
  V. Asgeirsson          : NEB                                           
  Christoph Bannwarth    : sTDA-DFT, sTD-DFT, PBEh-3c, B97-3c, D3        
  Sebastian Ehlert       : rSCAN, r2SCAN, r2SCAN-3c, D4, dhf basis sets  
  Marvin Friede          : D4 for Fr, Ra, Ac-Lr                          
  Lars Goerigk           : TD-DFT with DH, B97 family of functionals     
  Stefan Grimme          : VdW corrections, initial TS optimization, DFT functionals, gCP, sTDA/sTD-DF 
  Waldemar Hujo          : DFT-NL                                        
  H. Jonsson             : NEB                                           
  Holger Kruse           : gCP                                           
  Marcel Mueller         : wB97X-3c, vDZP basis set                      
  Hagen Neugebauer       : wr2SCAN                                       
  Tobias Risthaus        : range-separated hybrid DFT                    
  Lukas Wittmann         : regularized MP2, r2SCAN double-hybrids, wr2SCAN        
                                                                         
We gratefully acknowledge several colleagues who have allowed us to      
interface, adapt or use parts of their codes:                            
  Ed Valeev, F. Pavosevic, A. Kumar             : LibInt (2-el integral package), F12 methods 
  Garnet Chan, S. Sharma, J. Yang, R. Olivares  : DMRG                   
  Ulf Ekstrom                                   : XCFun DFT Library      
  Mihaly Kallay                                 : mrcc  (arbitrary order and MRCC methods)
  Frank Weinhold                                : gennbo (NPA and NBO analysis)           
  Simon Mueller                                 : openCOSMO-RS                            
  Christopher J. Cramer and Donald G. Truhlar   : smd solvation model                     
  S Lehtola, MJT Oliveira, MAL Marques          : LibXC Library                           
  Liviu Ungur et al                             : ANISO software                          


 Your calculation uses the libint2 library for the computation of 2-el integrals
 For citations please refer to: http://libint.valeyev.net

 Your ORCA version has been built with support for libXC version: 6.2.2
 For citations please refer to: https://libxc.gitlab.io

 This ORCA versions uses:
   CBLAS   interface :  Fast vector & matrix operations
   LAPACKE interface :  Fast linear algebra routines
   SCALAPACK package :  Parallel linear algebra routines
   Shared memory     :  Shared parallel matrices
   BLAS/LAPACK       :  OpenBLAS 0.3.27  USE64BITINT DYNAMIC_ARCH NO_AFFINITY SkylakeX SINGLE_THREADED
        Core in use  :  SkylakeX
   Copyright (c) 2011-2014, The OpenBLAS Project


NOTE: MaxCore=5000 MB was set to SCF,MP2,MDCI,CIPSI,MRCI and CIS
      => If you want to overwrite this, your respective input block should be placed after the MaxCore statement
Warning: RI is on but no J-basis has been assigned. Assigning Def2/J (nothing to worry about!)
================================================================================

----- Orbital basis set information -----
Your calculation utilizes the basis: def2-TZVP
   F. Weigend and R. Ahlrichs, Phys. Chem. Chem. Phys. 7, 3297 (2005).

----- AuxJ basis set information -----
Your calculation utilizes the auxiliary basis: def2/J
   F. Weigend, Phys. Chem. Chem. Phys. 8, 1057 (2006).

================================================================================
                                        WARNINGS
                       Please study these warnings very carefully!
================================================================================


WARNING: Geometry Optimization
  ===> : Switching off AutoStart
         For restart on a previous wavefunction, please use MOREAD

================================================================================
                                       INPUT FILE
================================================================================
NAME = honokiol2-opt_EC2.inp
|  1> ! OPT B3LYP def2-TZVP TightSCF
|  2> 
|  3> %maxcore 5000
|  4> 
|  5> %pal
|  6> nprocs 25
|  7> end
|  8> 
|  9> * xyz 0 1
| 10> O           1.65520149637843      1.40394998571437      2.47117117445926
| 11>   O          -3.88312977347735     -1.63556222477443      2.02805852377497
| 12>   C           1.27467361309655      0.10064892064469      0.44909669392983
| 13>   C          -0.08021705093356     -0.34272788487183      0.86885172297702
| 14>   C          -2.46112436232463     -0.60668676104852      0.34556517805678
| 15>   C          -1.17556590491378     -0.18645981087443      0.01252988692083
| 16>   C           3.05471796037475      0.09281741609676     -1.23268862904808
| 17>   C           1.79259763101064     -0.29293220246643     -0.78762666561104
| 18>   C           2.06308324250416      0.93647107568359      1.26181499983177
| 19>   C          -0.30896038910944     -0.95418287430680      2.10736572535621
| 20>   C          -2.64821944814167     -1.22112553764928      1.59318372158854
| 21>   C          -3.62171934754396     -0.37656760038551     -0.60134745354871
| 22>   C           3.58241412981183     -0.38026981101650     -2.57418586680997
| 23>   C           3.81250441290493      0.91490032553839     -0.39971731325028
| 24>   C          -1.57751458795718     -1.39191912272576      2.46247733168361
| 25>   C           3.32445873416406      1.33645097784869      0.82778554782935
| 26>   C          -4.33598247700091     -1.63919171667648     -1.01017772480571
| 27>   C           2.78145847226580      0.12295734383013     -3.74349928413286
| 28>   C          -5.64460082731294     -1.84834985209105     -0.89325706100439
| 29>   C           2.19158930827091     -0.64290396249162     -4.65374221312626
| 30>   H          -1.02355381533010      0.29652215467270     -0.94586340716307
| 31>   H           1.18882919609151     -0.94053126175129     -1.41328555993133
| 32>   H           0.51863370996382     -1.12934774350388      2.78425674977808
| 33>   H          -4.34172841625691      0.32206472605951     -0.15909462510023
| 34>   H          -3.23766872165813      0.11716135917053     -1.49820241926947
| 35>   H           3.61146857513679     -1.47388539679425     -2.60366666128007
| 36>   H           4.61754381628195     -0.03841843951215     -2.67842737642945
| 37>   H           4.80091697041666      1.23242492668994     -0.71262906325875
| 38>   H          -1.74627145837852     -1.89469957833403      3.40620594417178
| 39>   H           3.90631366447224      1.98487857374064      1.47039618617411
| 40>   H          -3.70884755543860     -2.42218097873326     -1.43004382687358
| 41>   H           2.69158572553466      1.20398279531975     -3.82065986278325
| 42>   H           0.72979117316564      1.18350688503183      2.63906320983288
| 43>   H          -4.44541137392413     -1.82983750749878      1.26053008657060
| 44>   H          -6.10181305119987     -2.77504712177767     -1.21709154760493
| 45>   H          -6.30807934819802     -1.08999893762134     -0.49039040905053
| 46>   H           1.63008459246549     -0.21810058166394     -5.47662412239851
| 47>   H           2.25327061421389     -1.72531352876869     -4.61193267441256
| 48>   H          -5.21564116862976      3.48638062472167      3.97972222927350
| 49>   H          -5.17038197430086      2.08001931580358      5.96279947270792
| 50>   C          -4.61301927200743      2.58205952694029      3.88957993467707
| 51>   O          -3.14762091558226      2.35622970614771      5.68164734287736
| 52>   C          -2.48630376091132      2.93213985170448      4.66700847158358
| 53>   C          -4.41597799307900      1.84598846657903      5.21572601505162
| 54>   O          -3.26257319274000      2.96463796397708      3.54815027143477
| 55>   O          -1.37713256225399      3.36684305756747      4.70222020237055
| 56>   H          -5.00972049800782      1.95763890778076      3.09160438922854
| 57>   H          -4.32784302385537      0.76665321818190      5.08983034717728
| 58>   O          -5.36233433357026      1.98659827288791      0.22892039467118
| 59>   C          -4.59175018068659      2.89696742589072      0.30812726904047
| 60>   O          -3.29538493837424      2.83779703200010     -0.05502528428571
| 61>   O          -4.89414549766790      4.10966844737288      0.82283648792231
| 62>   C          -2.60518894755182      3.98836965980344      0.50197386400851
| 63>   C          -3.74570597326423      4.97875005191281      0.70757956723165
| 64>   H          -2.19247120314157      3.66909860556364      1.45430203278482
| 65>   H          -3.90631572674497      5.64943788364778     -0.13765492099757
| 66>   H          -1.84358973661481      4.31315931919404     -0.19989513994659
| 67>   H          -3.64684550564080      5.54872064401907      1.62827780954609
| 68> *
| 69> 
| 70>                          ****END OF INPUT****
================================================================================

                       *****************************
                       * Geometry Optimization Run *
                       *****************************

Geometry optimization settings:
Update method            Update   .... BFGS
Choice of coordinates    CoordSys .... (2022) Redundant Internals
Initial Hessian          InHess   .... Almloef's Model
Max. no of cycles        MaxIter  .... 174

Convergence Tolerances:
Energy Change            TolE     ....  5.0000e-06 Eh
Max. Gradient            TolMAXG  ....  3.0000e-04 Eh/bohr
RMS Gradient             TolRMSG  ....  1.0000e-04 Eh/bohr
Max. Displacement        TolMAXD  ....  4.0000e-03 bohr
RMS Displacement         TolRMSD  ....  2.0000e-03 bohr
Strict Convergence                .... False

------------------------------------------------------------------------------
                        ORCA OPTIMIZATION COORDINATE SETUP
------------------------------------------------------------------------------

The optimization will be done in redundant internal coordinates (2022)
Making redundant internal coordinates   ...  (2022 redundants) done
Evaluating the initial hessian          ...  (Almloef) done
Evaluating the coordinates              ...  done
Calculating the B-matrix                .... done
Calculating the G-matrix                .... done
Diagonalizing the G-matrix              .... done
Small eigenvalue found = 1.321e-03
Small eigenvalue found = 1.460e-03
Small eigenvalue found = 2.882e-03
Small eigenvalue found = 8.302e-03
Small eigenvalue found = 1.343e-02
Small eigenvalue found = 1.489e-02
Small eigenvalue found = 1.677e-02
Small eigenvalue found = 2.330e-02
Small eigenvalue found = 2.555e-02
The first mode is                       ....  179
The number of degrees of freedom        ....  168

    -----------------------------------------------------------------
                    Redundant Internal Coordinates


    -----------------------------------------------------------------
         Definition                    Initial Value    Approx d2E/dq
    -----------------------------------------------------------------
      1. B(C   3,C   2)                  1.4861         0.438945   
      2. B(C   5,C   3)                  1.3991         0.604243   
      3. B(C   5,C   4)                  1.3929         0.618181   
      4. B(C   7,C   6)                  1.3928         0.618453   
      5. B(C   7,C   2)                  1.3974         0.608113   
      6. B(C   8,O   0)                  1.3592         0.626617   
      7. B(C   8,C   2)                  1.4074         0.586166   
      8. B(C   9,C   3)                  1.4000         0.602167   
      9. B(C  10,C   4)                  1.4032         0.595127   
     10. B(C  10,O   1)                  1.3733         0.595063   
     11. B(C  11,C   4)                  1.5154         0.394091   
     12. B(C  12,C   6)                  1.5172         0.391564   
     13. B(C  13,C   6)                  1.3942         0.615143   
     14. B(C  14,C   9)                  1.3881         0.629068   
     15. B(C  14,C  10)                  1.3897         0.625498   
     16. B(C  15,C   8)                  1.3926         0.618776   
     17. B(C  15,C  13)                  1.3866         0.632652   
     18. B(C  16,C  11)                  1.5072         0.406271   
     19. B(C  17,C  12)                  1.5040         0.410993   
     20. B(C  18,C  16)                  1.3304         0.777795   
     21. B(C  19,C  17)                  1.3278         0.785213   
     22. B(H  20,C   5)                  1.0839         0.368225   
     23. B(H  21,C   7)                  1.0841         0.367930   
     24. B(H  22,C   9)                  1.0834         0.368925   
     25. B(H  23,C  11)                  1.0964         0.351735   
     26. B(H  24,C  11)                  1.0934         0.355577   
     27. B(H  25,C  12)                  1.0944         0.354328   
     28. B(H  26,C  12)                  1.0951         0.353429   
     29. B(H  27,C  13)                  1.0843         0.367727   
     30. B(H  28,C  14)                  1.0825         0.370106   
     31. B(H  29,C  15)                  1.0826         0.370062   
     32. B(H  30,C  16)                  1.0875         0.363421   
     33. B(H  31,C  17)                  1.0875         0.363428   
     34. B(H  32,O   0)                  0.9660         0.508610   
     35. B(H  33,O   1)                  0.9711         0.499210   
     36. B(H  34,C  18)                  1.0829         0.369611   
     37. B(H  35,C  18)                  1.0852         0.366542   
     38. B(H  36,C  19)                  1.0830         0.369486   
     39. B(H  37,C  19)                  1.0850         0.366814   
     40. B(C  40,H  38)                  1.0904         0.359509   
     41. B(C  42,O  41)                  1.3411         0.669759   
     42. B(C  43,O  41)                  1.4444         0.458308   
     43. B(C  43,C  40)                  1.5295         0.374298   
     44. B(C  43,H  39)                  1.0872         0.363817   
     45. B(O  44,C  42)                  1.3622         0.619846   
     46. B(O  44,C  40)                  1.4445         0.458024   
     47. B(O  45,C  42)                  1.1918         1.158877   
     48. B(O  45,H  32)                  3.6692         0.000025   
     49. B(H  46,C  40)                  1.0881         0.362576   
     50. B(H  46,O  44)                  2.0676         0.008889   
     51. B(H  47,C  43)                  1.0902         0.359808   
     52. B(O  48,H  46)                  2.8845         0.000442   
     53. B(O  48,H  23)                  1.9907         0.011791   
     54. B(C  49,H  46)                  2.9673         0.000364   
     55. B(C  49,O  48)                  1.1953         1.144031   
     56. B(O  50,C  49)                  1.3476         0.653989   
     57. B(O  51,C  49)                  1.3517         0.644211   
     58. B(O  51,H  46)                  3.1292         0.000180   
     59. B(C  52,O  50)                  1.4527         0.444414   
     60. B(C  53,C  52)                  1.5244         0.381289   
     61. B(C  53,O  51)                  1.4448         0.457526   
     62. B(H  54,O  44)                  2.4547         0.002144   
     63. B(H  54,C  52)                  1.0859         0.365552   
     64. B(H  54,O  50)                  2.0459         0.009628   
     65. B(H  55,C  53)                  1.0909         0.358926   
     66. B(H  56,C  52)                  1.0854         0.366207   
     67. B(H  57,C  53)                  1.0873         0.363626   
     68. A(C   8,O   0,H  32)          111.3233         0.369389   
     69. A(C  10,O   1,H  33)          109.3156         0.364961   
     70. A(C   3,C   2,C   8)          121.6557         0.404094   
     71. A(C   3,C   2,C   7)          120.2561         0.406726   
     72. A(C   7,C   2,C   8)          118.0813         0.428221   
     73. A(C   2,C   3,C   5)          120.5021         0.406267   
     74. A(C   2,C   3,C   9)          121.9463         0.406020   
     75. A(C   5,C   3,C   9)          117.5359         0.429803   
     76. A(C  10,C   4,C  11)          121.3271         0.397557   
     77. A(C   5,C   4,C  11)          120.7717         0.400223   
     78. A(C   5,C   4,C  10)          117.8875         0.430656   
     79. A(C   3,C   5,H  20)          118.7599         0.352704   
     80. A(C   3,C   5,C   4)          122.8558         0.431833   
     81. A(C   4,C   5,H  20)          118.3769         0.354069   
     82. A(C   7,C   6,C  12)          120.7547         0.399801   
     83. A(C   7,C   6,C  13)          117.7050         0.433257   
     84. A(C  12,C   6,C  13)          121.5383         0.399423   
     85. A(C   2,C   7,H  21)          118.2023         0.353037   
     86. A(C   2,C   7,C   6)          122.7297         0.432363   
     87. A(C   6,C   7,H  21)          119.0579         0.354047   
     88. A(C   2,C   8,C  15)          119.8674         0.429559   
     89. A(O   0,C   8,C   2)          123.3640         0.427720   
     90. A(O   0,C   8,C  15)          116.7643         0.431897   
     91. A(C  14,C   9,H  22)          119.1604         0.355233   
     92. A(C   3,C   9,C  14)          120.8860         0.432923   
     93. A(C   3,C   9,H  22)          119.9010         0.352612   
     94. A(O   1,C  10,C   4)          122.2484         0.424934   
     95. A(O   1,C  10,C  14)          117.2361         0.428740   
     96. A(C   4,C  10,C  14)          120.4804         0.431567   
     97. A(C   4,C  11,C  16)          113.9052         0.372015   
     98. A(H  23,C  11,H  24)          105.8894         0.289195   
     99. A(C  16,C  11,H  24)          108.7983         0.328145   
    100. A(C   4,C  11,H  24)          108.1846         0.326503   
    101. A(C  16,C  11,H  23)          109.3912         0.327558   
    102. A(C   4,C  11,H  23)          110.3437         0.325920   
    103. A(C   6,C  12,C  17)          113.4452         0.372344   
    104. A(H  25,C  12,H  26)          106.5161         0.289253   
    105. A(C  17,C  12,H  26)          108.9614         0.328443   
    106. A(C   6,C  12,H  26)          108.3966         0.325833   
    107. A(C   6,C  12,H  25)          110.1602         0.325969   
    108. A(C  17,C  12,H  25)          109.1198         0.328581   
    109. A(C  15,C  13,H  27)          119.1629         0.355379   
    110. A(C   6,C  13,H  27)          119.7163         0.353692   
    111. A(C   6,C  13,C  15)          121.1208         0.435031   
    112. A(C   9,C  14,H  28)          120.7926         0.355425   
    113. A(C   9,C  14,C  10)          120.3518         0.435894   
    114. A(C  10,C  14,H  28)          118.8352         0.355082   
    115. A(C  13,C  15,H  29)          121.2256         0.355761   
    116. A(C   8,C  15,H  29)          118.2842         0.354425   
    117. A(C   8,C  15,C  13)          120.4896         0.435492   
    118. A(C  11,C  16,C  18)          125.0318         0.419096   
    119. A(C  18,C  16,H  30)          119.2079         0.367384   
    120. A(C  11,C  16,H  30)          115.7602         0.329329   
    121. A(C  12,C  17,C  19)          125.2095         0.420672   
    122. A(C  12,C  17,H  31)          115.5801         0.329960   
    123. A(C  19,C  17,H  31)          119.2097         0.367984   
    124. A(H  34,C  18,H  35)          116.8016         0.292850   
    125. A(C  16,C  18,H  35)          121.6119         0.367924   
    126. A(C  16,C  18,H  34)          121.5715         0.368451   
    127. A(H  36,C  19,H  37)          116.7487         0.292869   
    128. A(C  17,C  19,H  37)          121.5847         0.368570   
    129. A(C  17,C  19,H  36)          121.6659         0.369030   
    130. A(C  11,H  23,O  48)          161.4619         0.180522   
    131. A(H  38,C  40,C  43)          113.4927         0.324334   
    132. A(O  44,C  40,H  46)          108.6311         0.333779   
    133. A(H  38,C  40,H  46)          109.5752         0.291077   
    134. A(C  43,C  40,H  46)          113.9947         0.324787   
    135. A(C  43,C  40,O  44)          102.2373         0.374064   
    136. A(H  38,C  40,O  44)          108.4540         0.333309   
    137. A(C  42,O  41,C  43)          109.9183         0.411560   
    138. A(O  44,C  42,O  45)          123.0875         0.480007   
    139. A(O  41,C  42,O  45)          126.3843         0.486921   
    140. A(O  41,C  42,O  44)          110.5282         0.434374   
    141. A(O  41,C  43,H  47)          108.4211         0.333390   
    142. A(C  40,C  43,H  47)          112.7519         0.324379   
    143. A(H  39,C  43,H  47)          110.3990         0.291272   
    144. A(C  40,C  43,O  41)          102.8745         0.374104   
    145. A(H  39,C  43,O  41)          108.1578         0.334003   
    146. A(H  39,C  43,C  40)          113.7541         0.324970   
    147. A(C  42,O  44,H  54)          117.3257         0.170117   
    148. A(C  40,O  44,H  54)          133.2490         0.164748   
    149. A(C  40,O  44,C  42)          109.4086         0.405911   
    150. A(C  49,H  46,O  51)           25.4409         0.096496   
    151. A(O  48,H  46,O  51)           43.7846         0.096741   
    152. A(C  40,H  46,O  51)           97.0990         0.124759   
    153. A(O  48,H  46,C  49)           23.5186         0.098187   
    154. A(C  40,H  46,C  49)          117.0588         0.131440   
    155. A(C  40,H  46,O  48)          140.0505         0.132829   
    156. A(H  23,O  48,H  46)           97.0291         0.108949   
    157. A(H  46,O  48,C  49)           82.1302         0.154188   
    158. A(H  23,O  48,C  49)          108.6159         0.226060   
    159. A(H  46,C  49,O  51)           83.9898         0.144428   
    160. A(H  46,C  49,O  50)          111.9873         0.144617   
    161. A(H  46,C  49,O  48)           74.3512         0.152122   
    162. A(O  50,C  49,O  51)          110.9304         0.435527   
    163. A(O  48,C  49,O  51)          124.3540         0.482285   
    164. A(O  48,C  49,O  50)          124.6709         0.483628   
    165. A(C  49,O  50,C  52)          108.5993         0.407597   
    166. A(H  46,O  51,C  53)          120.0578         0.132222   
    167. A(H  46,O  51,C  49)           70.5693         0.135702   
    168. A(C  49,O  51,C  53)          109.3579         0.408610   
    169. A(H  54,C  52,H  56)          112.8542         0.292299   
    170. A(C  53,C  52,H  56)          114.6936         0.326311   
    171. A(O  50,C  52,H  56)          108.8095         0.332663   
    172. A(C  53,C  52,H  54)          110.9209         0.326215   
    173. A(O  50,C  52,H  54)          106.4967         0.332564   
    174. A(O  50,C  52,C  53)          102.1695         0.373313   
    175. A(H  55,C  53,H  57)          110.3147         0.291136   
    176. A(C  52,C  53,H  57)          112.7510         0.325932   
    177. A(O  51,C  53,H  57)          108.6646         0.333880   
    178. A(C  52,C  53,H  55)          113.8956         0.325235   
    179. A(O  51,C  53,H  55)          108.3366         0.333160   
    180. A(O  51,C  53,C  52)          102.3954         0.375190   
    181. A(O  44,H  54,C  52)          131.8171         0.151770   
    182. D(C   5,C   3,C   2,C   8)    128.7742         0.013148   
    183. D(C   5,C   3,C   2,C   7)    -50.2596         0.013148   
    184. D(C   9,C   3,C   2,C   7)    128.2595         0.013148   
    185. D(C   9,C   3,C   2,C   8)    -52.7066         0.013148   
    186. D(C   3,C   5,C   4,C  11)    178.1605         0.026434   
    187. D(H  20,C   5,C   4,C  10)   -179.5033         0.026434   
    188. D(C   3,C   5,C   4,C  10)     -0.5093         0.026434   
    189. D(C   4,C   5,C   3,C   2)    178.7768         0.025189   
    190. D(H  20,C   5,C   3,C   2)     -2.2329         0.025189   
    191. D(H  20,C   5,C   3,C   9)    179.1842         0.025189   
    192. D(H  20,C   5,C   4,C  11)     -0.8335         0.026434   
    193. D(C   4,C   5,C   3,C   9)      0.1938         0.025189   
    194. D(C   6,C   7,C   2,C   3)    179.9600         0.025531   
    195. D(H  21,C   7,C   2,C   3)     -1.2109         0.025531   
    196. D(H  21,C   7,C   6,C  12)      0.1291         0.026459   
    197. D(H  21,C   7,C   6,C  13)   -179.3650         0.026459   
    198. D(C   2,C   7,C   6,C  12)    178.9486         0.026459   
    199. D(H  21,C   7,C   2,C   8)    179.7212         0.025531   
    200. D(C   6,C   7,C   2,C   8)      0.8921         0.025531   
    201. D(C   2,C   7,C   6,C  13)     -0.5454         0.026459   
    202. D(C  15,C   8,C   2,C   7)     -0.5319         0.023630   
    203. D(C  15,C   8,O   0,H  32)    171.9963         0.028853   
    204. D(O   0,C   8,C   2,C   3)     -0.3617         0.023630   
    205. D(O   0,C   8,C   2,C   7)    178.6924         0.023630   
    206. D(C   2,C   8,O   0,H  32)     -7.2504         0.028853   
    207. D(C  15,C   8,C   2,C   3)   -179.5860         0.023630   
    208. D(C  14,C   9,C   3,C   5)      0.2864         0.025007   
    209. D(H  22,C   9,C   3,C   5)    177.6268         0.025007   
    210. D(H  22,C   9,C   3,C   2)     -0.9343         0.025007   
    211. D(C  14,C   9,C   3,C   2)   -178.2746         0.025007   
    212. D(C   4,C  10,O   1,H  33)     26.4772         0.025834   
    213. D(C  14,C  10,O   1,H  33)   -155.6694         0.025834   
    214. D(C  14,C  10,C   4,C   5)      0.3534         0.024395   
    215. D(O   1,C  10,C   4,C  11)     -0.5234         0.024395   
    216. D(O   1,C  10,C   4,C   5)    178.1387         0.024395   
    217. D(C  14,C  10,C   4,C  11)   -178.3087         0.024395   
    218. D(H  24,C  11,C   4,C   5)      1.0418         0.011542   
    219. D(H  23,C  11,C   4,C  10)     64.2524         0.011542   
    220. D(H  23,C  11,C   4,C   5)   -114.3712         0.011542   
    221. D(C  16,C  11,C   4,C  10)    -59.2298         0.011542   
    222. D(C  16,C  11,C   4,C   5)    122.1466         0.011542   
    223. D(H  26,C  12,C   6,C   7)   -174.7813         0.011402   
    224. D(H  25,C  12,C   6,C  13)    120.8772         0.011402   
    225. D(H  25,C  12,C   6,C   7)    -58.5972         0.011402   
    226. D(C  17,C  12,C   6,C  13)   -116.4704         0.011402   
    227. D(C  17,C  12,C   6,C   7)     64.0551         0.011402   
    228. D(H  27,C  13,C   6,C  12)      0.3286         0.026160   
    229. D(H  27,C  13,C   6,C   7)    179.8185         0.026160   
    230. D(C  15,C  13,C   6,C  12)   -179.6566         0.026160   
    231. D(C  15,C  13,C   6,C   7)     -0.1667         0.026160   
    232. D(H  28,C  14,C  10,C   4)   -178.2667         0.027103   
    233. D(H  28,C  14,C  10,O   1)      3.8399         0.027103   
    234. D(C   9,C  14,C  10,C   4)      0.1055         0.027103   
    235. D(C   9,C  14,C  10,O   1)   -177.7879         0.027103   
    236. D(H  28,C  14,C   9,H  22)      0.5444         0.027433   
    237. D(C  10,C  14,C   9,H  22)   -177.7956         0.027433   
    238. D(C  10,C  14,C   9,C   3)     -0.4358         0.027433   
    239. D(H  28,C  14,C   9,C   3)    177.9042         0.027433   
    240. D(C   8,C  15,C  13,C   6)      0.5048         0.027766   
    241. D(H  29,C  15,C   8,C   2)    179.5918         0.026488   
    242. D(C  13,C  15,C   8,C   2)     -0.1425         0.026488   
    243. D(C  13,C  15,C   8,O   0)   -179.4169         0.026488   
    244. D(H  29,C  15,C   8,O   0)      0.3173         0.026488   
    245. D(H  29,C  15,C  13,H  27)      0.7932         0.027766   
    246. D(H  29,C  15,C  13,C   6)   -179.2216         0.027766   
    247. D(C   8,C  15,C  13,H  27)   -179.4804         0.027766   
    248. D(H  30,C  16,C  11,H  23)   -177.8352         0.012233   
    249. D(H  30,C  16,C  11,C   4)    -53.8377         0.012233   
    250. D(C  18,C  16,C  11,H  24)   -113.0570         0.012233   
    251. D(C  18,C  16,C  11,H  23)      2.1833         0.012233   
    252. D(C  18,C  16,C  11,C   4)    126.1807         0.012233   
    253. D(H  31,C  17,C  12,H  25)   -179.5323         0.012508   
    254. D(H  31,C  17,C  12,C   6)     57.2423         0.012508   
    255. D(C  19,C  17,C  12,H  26)    116.7153         0.012508   
    256. D(C  19,C  17,C  12,C   6)   -122.4389         0.012508   
    257. D(C  19,C  17,C  12,H  25)      0.7865         0.012508   
    258. D(H  35,C  18,C  16,H  30)   -179.2913         0.043458   
    259. D(H  35,C  18,C  16,C  11)      0.6897         0.043458   
    260. D(H  34,C  18,C  16,H  30)     -0.7416         0.043458   
    261. D(H  34,C  18,C  16,C  11)    179.2394         0.043458   
    262. D(H  37,C  19,C  17,H  31)   -179.7796         0.044378   
    263. D(H  37,C  19,C  17,C  12)     -0.1091         0.044378   
    264. D(H  36,C  19,C  17,H  31)      0.5463         0.044378   
    265. D(H  36,C  19,C  17,C  12)   -179.7831         0.044378   
    266. D(O  48,H  23,C  11,H  24)    -13.6205         0.114725   
    267. D(O  48,H  23,C  11,C  16)   -130.7100         0.114725   
    268. D(O  48,H  23,C  11,C   4)    103.2265         0.114725   
    269. D(O  45,C  42,O  41,C  43)   -174.5934         0.033321   
    270. D(O  44,C  42,O  41,C  43)      5.4903         0.033321   
    271. D(H  47,C  43,O  41,C  42)    102.3156         0.016546   
    272. D(C  40,C  43,O  41,C  42)    -17.3058         0.016546   
    273. D(H  39,C  43,O  41,C  42)   -137.9574         0.016546   
    274. D(O  41,C  43,C  40,H  46)    138.6739         0.011184   
    275. D(O  41,C  43,C  40,O  44)     21.6498         0.011184   
    276. D(O  41,C  43,C  40,H  38)    -94.9305         0.011184   
    277. D(H  39,C  43,C  40,H  46)   -104.5921         0.011184   
    278. D(H  39,C  43,C  40,O  44)    138.3838         0.011184   
    279. D(H  39,C  43,C  40,H  38)     21.8036         0.011184   
    280. D(H  54,O  44,C  42,O  45)      8.7011         0.033830   
    281. D(C  40,O  44,C  42,O  45)   -170.0076         0.033830   
    282. D(C  40,O  44,C  42,O  41)      9.9120         0.033830   
    283. D(H  54,O  44,C  40,H  46)     41.0119         0.019203   
    284. D(H  54,O  44,C  40,C  43)    161.8251         0.019203   
    285. D(H  54,O  44,C  40,H  38)    -78.0166         0.019203   
    286. D(C  42,O  44,C  40,H  46)   -140.5631         0.019203   
    287. D(H  54,O  44,C  42,O  41)   -171.3793         0.033830   
    288. D(C  42,O  44,C  40,C  43)    -19.7499         0.019203   
    289. D(C  42,O  44,C  40,H  38)    100.4083         0.019203   
    290. D(O  51,H  46,C  40,H  38)     55.3646         0.155238   
    291. D(C  49,H  46,C  40,O  44)    -46.3412         0.155238   
    292. D(C  49,H  46,C  40,C  43)   -159.6015         0.155238   
    293. D(C  49,H  46,C  40,H  38)     71.9809         0.155238   
    294. D(O  48,H  46,C  40,O  44)    -52.8014         0.155238   
    295. D(O  48,H  46,C  40,C  43)   -166.0617         0.155238   
    296. D(O  48,H  46,C  40,H  38)     65.5207         0.155238   
    297. D(H  23,O  48,H  46,O  51)    137.1081         0.001500   
    298. D(H  23,O  48,H  46,C  49)    107.9180         0.001500   
    299. D(H  23,O  48,H  46,C  40)    122.4602         0.001500   
    300. D(C  49,O  48,H  46,O  51)     29.1901         0.001500   
    301. D(C  49,O  48,H  46,C  40)     14.5422         0.001500   
    302. D(H  46,O  48,H  23,C  11)   -128.7768         0.001572   
    303. D(C  49,O  48,H  23,C  11)    -44.7488         0.001572   
    304. D(O  50,C  49,H  46,O  51)    110.1740         0.001500   
    305. D(O  50,C  49,H  46,O  48)   -121.6005         0.001500   
    306. D(O  50,C  49,H  46,C  40)     68.8303         0.001500   
    307. D(O  48,C  49,H  46,O  51)   -128.2255         0.001500   
    308. D(O  48,C  49,H  46,C  40)   -169.5692         0.001500   
    309. D(H  46,C  49,O  48,H  23)    -94.8069         0.135388   
    310. D(O  51,C  49,O  48,H  46)    -71.1444         0.135388   
    311. D(O  51,C  49,O  48,H  23)   -165.9513         0.135388   
    312. D(O  50,C  49,O  48,H  46)    106.2007         0.135388   
    313. D(O  50,C  49,O  48,H  23)     11.3939         0.135388   
    314. D(O  51,C  49,H  46,O  48)    128.2255         0.001500   
    315. D(O  51,C  49,H  46,C  40)    -41.3437         0.001500   
    316. D(C  52,O  50,C  49,H  46)    -79.4150         0.038013   
    317. D(C  52,O  50,C  49,O  51)     12.5067         0.038013   
    318. D(C  52,O  50,C  49,O  48)   -165.1468         0.038013   
    319. D(H  46,O  51,C  49,O  50)   -111.2722         0.036784   
    320. D(H  46,O  51,C  49,O  48)     66.3903         0.036784   
    321. D(C  53,O  51,C  49,H  46)    116.0410         0.036784   
    322. D(C  53,O  51,C  49,O  50)      4.7689         0.036784   
    323. D(C  53,O  51,C  49,O  48)   -177.5687         0.036784   
    324. D(C  53,O  51,H  46,C  49)   -101.6515         0.001500   
    325. D(C  53,O  51,H  46,O  48)   -128.5907         0.001500   
    326. D(C  53,O  51,H  46,C  40)     41.9916         0.001500   
    327. D(C  49,O  51,H  46,O  48)    -26.9392         0.001500   
    328. D(C  49,O  51,H  46,C  40)    143.6431         0.001500   
    329. D(H  56,C  52,O  50,C  49)   -144.8196         0.016844   
    330. D(H  54,C  52,O  50,C  49)     93.2569         0.016844   
    331. D(C  53,C  52,O  50,C  49)    -23.1558         0.016844   
    332. D(H  55,C  53,C  52,H  56)     25.3152         0.011583   
    333. D(H  55,C  53,C  52,H  54)    154.6185         0.011583   
    334. D(H  55,C  53,C  52,O  50)    -92.2134         0.011583   
    335. D(O  51,C  53,C  52,H  56)    142.0382         0.011583   
    336. D(O  51,C  53,C  52,H  54)    -88.6584         0.011583   
    337. D(O  51,C  53,C  52,O  50)     24.5096         0.011583   
    338. D(H  57,C  53,O  51,C  49)   -138.1965         0.017866   
    339. D(H  55,C  53,O  51,H  46)   -179.8397         0.017866   
    340. D(H  55,C  53,O  51,C  49)    101.9355         0.017866   
    341. D(C  52,C  53,O  51,H  46)     59.5121         0.017866   
    342. D(C  52,C  53,O  51,C  49)    -18.7127         0.017866   
    343. D(O  44,H  54,C  52,H  56)    175.2079         0.137435   
    344. D(O  44,H  54,C  52,C  53)     44.9316         0.137435   
    345. D(O  44,H  54,C  52,O  50)    -65.4691         0.137435   
    346. D(C  52,H  54,O  44,C  42)   -164.4494         0.001503   
    347. D(C  52,H  54,O  44,C  40)     13.8785         0.001503   
    -----------------------------------------------------------------

Number of atoms                         .... 58
Number of degrees of freedom            .... 347


         *************************************************************
         *                GEOMETRY OPTIMIZATION CYCLE   1            *
         *************************************************************
---------------------------------
CARTESIAN COORDINATES (ANGSTROEM)
---------------------------------
  O      1.655201    1.403950    2.471171
  O     -3.883130   -1.635562    2.028059
  C      1.274674    0.100649    0.449097
  C     -0.080217   -0.342728    0.868852
  C     -2.461124   -0.606687    0.345565
  C     -1.175566   -0.186460    0.012530
  C      3.054718    0.092817   -1.232689
  C      1.792598   -0.292932   -0.787627
  C      2.063083    0.936471    1.261815
  C     -0.308960   -0.954183    2.107366
  C     -2.648219   -1.221126    1.593184
  C     -3.621719   -0.376568   -0.601347
  C      3.582414   -0.380270   -2.574186
  C      3.812504    0.914900   -0.399717
  C     -1.577515   -1.391919    2.462477
  C      3.324459    1.336451    0.827786
  C     -4.335982   -1.639192   -1.010178
  C      2.781458    0.122957   -3.743499
  C     -5.644601   -1.848350   -0.893257
  C      2.191589   -0.642904   -4.653742
  H     -1.023554    0.296522   -0.945863
  H      1.188829   -0.940531   -1.413286
  H      0.518634   -1.129348    2.784257
  H     -4.341728    0.322065   -0.159095
  H     -3.237669    0.117161   -1.498202
  H      3.611469   -1.473885   -2.603667
  H      4.617544   -0.038418   -2.678427
  H      4.800917    1.232425   -0.712629
  H     -1.746271   -1.894700    3.406206
  H      3.906314    1.984879    1.470396
  H     -3.708848   -2.422181   -1.430044
  H      2.691586    1.203983   -3.820660
  H      0.729791    1.183507    2.639063
  H     -4.445411   -1.829838    1.260530
  H     -6.101813   -2.775047   -1.217092
  H     -6.308079   -1.089999   -0.490390
  H      1.630085   -0.218101   -5.476624
  H      2.253271   -1.725314   -4.611933
  H     -5.215641    3.486381    3.979722
  H     -5.170382    2.080019    5.962799
  C     -4.613019    2.582060    3.889580
  O     -3.147621    2.356230    5.681647
  C     -2.486304    2.932140    4.667008
  C     -4.415978    1.845988    5.215726
  O     -3.262573    2.964638    3.548150
  O     -1.377133    3.366843    4.702220
  H     -5.009720    1.957639    3.091604
  H     -4.327843    0.766653    5.089830
  O     -5.362334    1.986598    0.228920
  C     -4.591750    2.896967    0.308127
  O     -3.295385    2.837797   -0.055025
  O     -4.894145    4.109668    0.822836
  C     -2.605189    3.988370    0.501974
  C     -3.745706    4.978750    0.707580
  H     -2.192471    3.669099    1.454302
  H     -3.906316    5.649438   -0.137655
  H     -1.843590    4.313159   -0.199895
  H     -3.646846    5.548721    1.628278

----------------------------
CARTESIAN COORDINATES (A.U.)
----------------------------
  NO LB      ZA    FRAG     MASS         X           Y           Z
   0 O     8.0000    0    15.999    3.127878    2.653081    4.669837
   1 O     8.0000    0    15.999   -7.338052   -3.090765    3.832475
   2 C     6.0000    0    12.011    2.408784    0.190199    0.848670
   3 C     6.0000    0    12.011   -0.151588   -0.647662    1.641892
   4 C     6.0000    0    12.011   -4.650851   -1.146472    0.653024
   5 C     6.0000    0    12.011   -2.221498   -0.352358    0.023678
   6 C     6.0000    0    12.011    5.772580    0.175399   -2.329444
   7 C     6.0000    0    12.011    3.387519   -0.553562   -1.488399
   8 C     6.0000    0    12.011    3.898662    1.769674    2.384485
   9 C     6.0000    0    12.011   -0.583851   -1.803144    3.982344
  10 C     6.0000    0    12.011   -5.004409   -2.307593    3.010681
  11 C     6.0000    0    12.011   -6.844058   -0.711610   -1.136382
  12 C     6.0000    0    12.011    6.769782   -0.718606   -4.864506
  13 C     6.0000    0    12.011    7.204589    1.728911   -0.755356
  14 C     6.0000    0    12.011   -2.981071   -2.630346    4.653408
  15 C     6.0000    0    12.011    6.282317    2.525526    1.564288
  16 C     6.0000    0    12.011   -8.193819   -3.097623   -1.908959
  17 C     6.0000    0    12.011    5.256195    0.232356   -7.074188
  18 C     6.0000    0    12.011  -10.666750   -3.492875   -1.688011
  19 C     6.0000    0    12.011    4.141504   -1.214912   -8.794298
  20 H     1.0000    0     1.008   -1.934236    0.560346   -1.787423
  21 H     1.0000    0     1.008    2.246562   -1.777347   -2.670723
  22 H     1.0000    0     1.008    0.980076   -2.134158    5.261483
  23 H     1.0000    0     1.008   -8.204678    0.608614   -0.300645
  24 H     1.0000    0     1.008   -6.118307    0.221403   -2.831192
  25 H     1.0000    0     1.008    6.824687   -2.785240   -4.920217
  26 H     1.0000    0     1.008    8.725893   -0.072600   -5.061494
  27 H     1.0000    0     1.008    9.072418    2.328946   -1.346674
  28 H     1.0000    0     1.008   -3.299975   -3.580463    6.436796
  29 H     1.0000    0     1.008    7.381863    3.750877    2.778646
  30 H     1.0000    0     1.008   -7.008706   -4.577259   -2.702391
  31 H     1.0000    0     1.008    5.086360    2.275198   -7.220001
  32 H     1.0000    0     1.008    1.379105    2.236504    4.987107
  33 H     1.0000    0     1.008   -8.400610   -3.457892    2.382057
  34 H     1.0000    0     1.008  -11.530756   -5.244079   -2.299970
  35 H     1.0000    0     1.008  -11.920542   -2.059799   -0.926704
  36 H     1.0000    0     1.008    3.080413   -0.412150  -10.349320
  37 H     1.0000    0     1.008    4.258064   -3.260370   -8.715290
  38 H     1.0000    0     1.008   -9.856133    6.588305    7.520585
  39 H     1.0000    0     1.008   -9.770606    3.930667   11.268058
  40 C     6.0000    0    12.011   -8.717343    4.879385    7.350241
  41 O     8.0000    0    15.999   -5.948142    4.452629   10.736757
  42 C     6.0000    0    12.011   -4.698433    5.540941    8.819368
  43 C     6.0000    0    12.011   -8.344989    3.488413    9.856294
  44 O     8.0000    0    15.999   -6.165370    5.602354    6.705032
  45 O     8.0000    0    15.999   -2.602403    6.362411    8.885908
  46 H     1.0000    0     1.008   -9.467000    3.699401    5.842286
  47 H     1.0000    0     1.008   -8.178438    1.448765    9.618385
  48 O     8.0000    0    15.999  -10.133343    3.754127    0.432597
  49 C     6.0000    0    12.011   -8.677150    5.474475    0.582276
  50 O     8.0000    0    15.999   -6.227375    5.362659   -0.103983
  51 O     8.0000    0    15.999   -9.248595    7.766148    1.554936
  52 C     6.0000    0    12.011   -4.923094    7.536926    0.948593
  53 C     6.0000    0    12.011   -7.078358    9.408474    1.337132
  54 H     1.0000    0     1.008   -4.143170    6.933592    2.748233
  55 H     1.0000    0     1.008   -7.381867   10.675890   -0.260130
  56 H     1.0000    0     1.008   -3.483880    8.150690   -0.377747
  57 H     1.0000    0     1.008   -6.891539   10.485562    3.076999

--------------------------------
INTERNAL COORDINATES (ANGSTROEM)
--------------------------------
 O      0   0   0     0.000000000000     0.00000000     0.00000000
 O      1   0   0     6.333095337477     0.00000000     0.00000000
 C      1   2   0     2.435606770596    63.15778913     0.00000000
 C      3   1   2     1.486104299017    93.87565199     0.30867405
 C      2   1   3     2.431351058073    48.22979125   326.90136912
 C      5   2   1     1.392897606508   146.39913340    22.85387652
 C      3   1   2     2.448881598470   117.27756505   179.62631194
 C      7   3   1     1.392778031602    28.68660368   181.24897183
 C      1   2   3     1.359208007354    92.01185980   359.70191312
 C      4   3   1     1.400042018282   121.94627906   307.12439200
 C      2   1   3     1.373272504943    24.62146452   357.59360728
 C      5   2   1     1.515446825103    92.79337969   205.37993029
 C      7   3   1     1.517197947078   149.43346687   179.47209186
 C      7   3   1     1.394238799695    89.01954627     0.76598988
 C     10   4   3     1.388145176681   120.88599474   181.72536225
 C     14   7   3     1.386599008711   121.12082921   359.57143140
 C     12   5   2     1.507160796941   113.90522535   300.51992119
 C     13   7   3     1.504015093894   113.44520216    65.04755661
 C     17  12   5     1.330375719114   125.03184769   126.18072552
 C     18  13   7     1.327791911760   125.20947261   237.56111146
 H      6   5   2     1.083926639846   118.37689532   182.10329708
 H      8   7   3     1.084144785826   119.05785088   181.18045929
 H     10   4   3     1.083409517756   119.90096773   359.06570141
 H     12   5   2     1.096397624429   110.34368647    64.00210126
 H     12   5   2     1.093440441124   108.18463053   179.41512079
 H     13   7   3     1.094398614533   110.16015133   302.39520338
 H     13   7   3     1.095090005588   108.39663026   186.21113652
 H     14   7   3     1.084294710619   119.71628613   179.55660652
 H     15  10   4     1.082539034809   120.79261893   177.90420303
 H     16  14   7     1.082571909645   121.22556829   180.77844783
 H     17  12   5     1.087500776094   115.76021653   306.16228682
 H     18  13   7     1.087495697587   115.58005947    57.24227288
 H      1   2   3     0.966005777669    20.75272511   158.79432803
 H      2   1   3     0.971083614112   131.12313063   325.92627018
 H     19  17  12     1.082903329955   121.57150970   179.23942290
 H     19  17  12     1.085173440704   121.61192786     0.68972378
 H     20  18  13     1.082995888654   121.66589618   180.21685328
 H     20  18  13     1.084971469762   121.58469488   359.89092591
 H     24  12   5     5.282653079593   143.74138322     5.23806581
 H     39  24  12     2.431562435826   106.82435577   300.24948242
 C     39  24  12     1.090447353822    49.23574242   332.73955309
 O     40  39  24     2.060801057965    80.18218398    81.48672769
 C     42  40  39     1.341083485081   130.15038439   352.25214989
 C     40  39  24     1.087204928432    64.97626863    40.48686578
 O     43  42  40     1.362165199281   110.52819169   339.43719195
 O     43  42  40     1.191833667549   126.38426164   159.35352588
 H     41  39  24     1.088135075933   109.57518479   333.60124327
 H     44  40  39     1.090221110795   110.39897648   222.38098100
 O     24  12   5     1.990694356887   161.46190190   103.22648294
 C     49  24  12     1.195343323218   108.61592649   315.25121684
 O     50  49  24     1.347569572963   124.67089921    11.39388242
 O     50  49  24     1.351670179903   124.35403811   194.04873934
 C     51  50  49     1.452733949764   108.59928022   194.85315107
 C     52  50  49     1.444818443379   109.35789484   182.43134600
 H     53  51  50     1.085909242834   106.49669682    93.25692955
 H     54  52  50     1.090889087232   108.33660639   101.93552773
 H     53  51  50     1.085422396885   108.80952604   215.18040128
 H     54  52  50     1.087347746273   108.66457846   221.80351769

---------------------------
INTERNAL COORDINATES (A.U.)
---------------------------
 O      0   0   0     0.000000000000     0.00000000     0.00000000
 O      1   0   0    11.967815767845     0.00000000     0.00000000
 C      1   2   0     4.602629766352    63.15778913     0.00000000
 C      3   1   2     2.808330131585    93.87565199     0.30867405
 C      2   1   3     4.594587635177    48.22979125   326.90136912
 C      5   2   1     2.632195008894   146.39913340    22.85387652
 C      3   1   2     4.627715555507   117.27756505   179.62631194
 C      7   3   1     2.631969045070    28.68660368   181.24897183
 C      1   2   3     2.568530892932    92.01185980   359.70191312
 C      4   3   1     2.645695990535   121.94627906   307.12439200
 C      2   1   3     2.595108941586    24.62146452   357.59360728
 C      5   2   1     2.863779469965    92.79337969   205.37993029
 C      7   3   1     2.867088610926   149.43346687   179.47209186
 C      7   3   1     2.634729496711    89.01954627     0.76598988
 C     10   4   3     2.623214218051   120.88599474   181.72536225
 C     14   7   3     2.620292384031   121.12082921   359.57143140
 C     12   5   2     2.848121146002   113.90522535   300.51992119
 C     13   7   3     2.842176628744   113.44520216    65.04755661
 C     17  12   5     2.514045764343   125.03184769   126.18072552
 C     18  13   7     2.509163076062   125.20947261   237.56111146
 H      6   5   2     2.048324498571   118.37689532   182.10329708
 H      8   7   3     2.048736734730   119.05785088   181.18045929
 H     10   4   3     2.047347279443   119.90096773   359.06570141
 H     12   5   2     2.071891244053   110.34368647    64.00210126
 H     12   5   2     2.066302977479   108.18463053   179.41512079
 H     13   7   3     2.068113662810   110.16015133   302.39520338
 H     13   7   3     2.069420202556   108.39663026   186.21113652
 H     14   7   3     2.049020051530   119.71628613   179.55660652
 H     15  10   4     2.045702305068   120.79261893   177.90420303
 H     16  14   7     2.045764429505   121.22556829   180.77844783
 H     17  12   5     2.055078637244   115.76021653   306.16228682
 H     18  13   7     2.055069040258   115.58005947    57.24227288
 H      1   2   3     1.825486363579    20.75272511   158.79432803
 H      2   1   3     1.835082083809   131.12313063   325.92627018
 H     19  17  12     2.046390723127   121.57150970   179.23942290
 H     19  17  12     2.050680610736   121.61192786     0.68972378
 H     20  18  13     2.046565633719   121.66589618   180.21685328
 H     20  18  13     2.050298940969   121.58469488   359.89092591
 H     24  12   5     9.982767580947   143.74138322     5.23806581
 H     39  24  12     4.594987081242   106.82435577   300.24948242
 C     39  24  12     2.060646862182    49.23574242   332.73955309
 O     40  39  24     3.894349616050    80.18218398    81.48672769
 C     42  40  39     2.534280509528   130.15038439   352.25214989
 C     40  39  24     2.054519566186    64.97626863    40.48686578
 O     43  42  40     2.574119175800   110.52819169   339.43719195
 O     43  42  40     2.252239228855   126.38426164   159.35352588
 H     41  39  24     2.056277290227   109.57518479   333.60124327
 H     44  40  39     2.060219324821   110.39897648   222.38098100
 O     24  12   5     3.761867150858   161.46190190   103.22648294
 C     49  24  12     2.258871516893   108.61592649   315.25121684
 O     50  49  24     2.546537439306   124.67089921    11.39388242
 O     50  49  24     2.554286463404   124.35403811   194.04873934
 C     51  50  49     2.745269310504   108.59928022   194.85315107
 C     52  50  49     2.730311171226   109.35789484   182.43134600
 H     53  51  50     2.052071075249   106.49669682    93.25692955
 H     54  52  50     2.061481617352   108.33660639   101.93552773
 H     53  51  50     2.051151069737   108.80952604   215.18040128
 H     54  52  50     2.054789452793   108.66457846   221.80351769

---------------------
BASIS SET INFORMATION
---------------------
There are 3 groups of distinct atoms

 Group   1 Type O   : 11s6p2d1f contracted to 5s3p2d1f pattern {62111/411/11/1}
 Group   2 Type C   : 11s6p2d1f contracted to 5s3p2d1f pattern {62111/411/11/1}
 Group   3 Type H   : 5s1p contracted to 3s1p pattern {311/1}

Atom   0O    basis set group =>   1
Atom   1O    basis set group =>   1
Atom   2C    basis set group =>   2
Atom   3C    basis set group =>   2
Atom   4C    basis set group =>   2
Atom   5C    basis set group =>   2
Atom   6C    basis set group =>   2
Atom   7C    basis set group =>   2
Atom   8C    basis set group =>   2
Atom   9C    basis set group =>   2
Atom  10C    basis set group =>   2
Atom  11C    basis set group =>   2
Atom  12C    basis set group =>   2
Atom  13C    basis set group =>   2
Atom  14C    basis set group =>   2
Atom  15C    basis set group =>   2
Atom  16C    basis set group =>   2
Atom  17C    basis set group =>   2
Atom  18C    basis set group =>   2
Atom  19C    basis set group =>   2
Atom  20H    basis set group =>   3
Atom  21H    basis set group =>   3
Atom  22H    basis set group =>   3
Atom  23H    basis set group =>   3
Atom  24H    basis set group =>   3
Atom  25H    basis set group =>   3
Atom  26H    basis set group =>   3
Atom  27H    basis set group =>   3
Atom  28H    basis set group =>   3
Atom  29H    basis set group =>   3
Atom  30H    basis set group =>   3
Atom  31H    basis set group =>   3
Atom  32H    basis set group =>   3
Atom  33H    basis set group =>   3
Atom  34H    basis set group =>   3
Atom  35H    basis set group =>   3
Atom  36H    basis set group =>   3
Atom  37H    basis set group =>   3
Atom  38H    basis set group =>   3
Atom  39H    basis set group =>   3
Atom  40C    basis set group =>   2
Atom  41O    basis set group =>   1
Atom  42C    basis set group =>   2
Atom  43C    basis set group =>   2
Atom  44O    basis set group =>   1
Atom  45O    basis set group =>   1
Atom  46H    basis set group =>   3
Atom  47H    basis set group =>   3
Atom  48O    basis set group =>   1
Atom  49C    basis set group =>   2
Atom  50O    basis set group =>   1
Atom  51O    basis set group =>   1
Atom  52C    basis set group =>   2
Atom  53C    basis set group =>   2
Atom  54H    basis set group =>   3
Atom  55H    basis set group =>   3
Atom  56H    basis set group =>   3
Atom  57H    basis set group =>   3
---------------------------------
AUXILIARY/J BASIS SET INFORMATION
---------------------------------
There are 3 groups of distinct atoms

 Group   1 Type O   : 12s5p4d2f1g contracted to 6s4p3d1f1g pattern {711111/2111/211/2/1}
 Group   2 Type C   : 12s5p4d2f1g contracted to 6s4p3d1f1g pattern {711111/2111/211/2/1}
 Group   3 Type H   : 5s2p1d contracted to 3s1p1d pattern {311/2/1}

Atom   0O    basis set group =>   1
Atom   1O    basis set group =>   1
Atom   2C    basis set group =>   2
Atom   3C    basis set group =>   2
Atom   4C    basis set group =>   2
Atom   5C    basis set group =>   2
Atom   6C    basis set group =>   2
Atom   7C    basis set group =>   2
Atom   8C    basis set group =>   2
Atom   9C    basis set group =>   2
Atom  10C    basis set group =>   2
Atom  11C    basis set group =>   2
Atom  12C    basis set group =>   2
Atom  13C    basis set group =>   2
Atom  14C    basis set group =>   2
Atom  15C    basis set group =>   2
Atom  16C    basis set group =>   2
Atom  17C    basis set group =>   2
Atom  18C    basis set group =>   2
Atom  19C    basis set group =>   2
Atom  20H    basis set group =>   3
Atom  21H    basis set group =>   3
Atom  22H    basis set group =>   3
Atom  23H    basis set group =>   3
Atom  24H    basis set group =>   3
Atom  25H    basis set group =>   3
Atom  26H    basis set group =>   3
Atom  27H    basis set group =>   3
Atom  28H    basis set group =>   3
Atom  29H    basis set group =>   3
Atom  30H    basis set group =>   3
Atom  31H    basis set group =>   3
Atom  32H    basis set group =>   3
Atom  33H    basis set group =>   3
Atom  34H    basis set group =>   3
Atom  35H    basis set group =>   3
Atom  36H    basis set group =>   3
Atom  37H    basis set group =>   3
Atom  38H    basis set group =>   3
Atom  39H    basis set group =>   3
Atom  40C    basis set group =>   2
Atom  41O    basis set group =>   1
Atom  42C    basis set group =>   2
Atom  43C    basis set group =>   2
Atom  44O    basis set group =>   1
Atom  45O    basis set group =>   1
Atom  46H    basis set group =>   3
Atom  47H    basis set group =>   3
Atom  48O    basis set group =>   1
Atom  49C    basis set group =>   2
Atom  50O    basis set group =>   1
Atom  51O    basis set group =>   1
Atom  52C    basis set group =>   2
Atom  53C    basis set group =>   2
Atom  54H    basis set group =>   3
Atom  55H    basis set group =>   3
Atom  56H    basis set group =>   3
Atom  57H    basis set group =>   3


           ************************************************************
           *        Program running with 25 parallel MPI-processes    *
           *              working on a common directory               *
           ************************************************************
------------------------------------------------------------------------------
                             ORCA STARTUP CALCULATIONS
                           -- RI-GTO INTEGRALS CHOSEN --
------------------------------------------------------------------------------
------------------------------------------------------------------------------
                   ___                                                        
                  /   \      - P O W E R E D   B Y -                         
                 /     \                                                     
                 |  |  |   _    _      __       _____    __    __             
                 |  |  |  | |  | |    /  \     |  _  \  |  |  /  |          
                  \  \/   | |  | |   /    \    | | | |  |  | /  /          
                 / \  \   | |__| |  /  /\  \   | |_| |  |  |/  /          
                |  |  |   |  __  | /  /__\  \  |    /   |      \           
                |  |  |   | |  | | |   __   |  |    \   |  |\   \          
                \     /   | |  | | |  |  |  |  | |\  \  |  | \   \       
                 \___/    |_|  |_| |__|  |__|  |_| \__\ |__|  \__/        
                                                                              
                      - O R C A' S   B I G   F R I E N D -                    
                                      &                                       
                       - I N T E G R A L  F E E D E R -                       
                                                                              
 v1 FN, 2020, v2 2021, v3 2022-2024                                           
------------------------------------------------------------------------------


----------------------
SHARK INTEGRAL PACKAGE
----------------------

Number of atoms                             ...     58
Number of basis functions                   ...   1148
Number of shells                            ...    456
Maximum angular momentum                    ...      3
Integral batch strategy                     ... SHARK/LIBINT Hybrid
RI-J (if used) integral strategy            ... SPLIT-RIJ (Revised 2003 algorithm where possible)
Printlevel                                  ...      1
Contraction scheme used                     ... SEGMENTED contraction
Prescreening option                         ... SCHWARTZ
   Thresh                                   ... 2.500e-11
   Tcut                                     ... 2.500e-12
   Tpresel                                  ... 2.500e-12 
Coulomb Range Separation                    ... NOT USED
Exchange Range Separation                   ... NOT USED
Multipole approximations                    ... NOT USED
Finite Nucleus Model                        ... NOT USED
CABS basis                                  ... NOT available
Auxiliary Coulomb fitting basis             ... AVAILABLE
   # of basis functions in Aux-J            ...   1854
   # of shells in Aux-J                     ...    610
   Maximum angular momentum in Aux-J        ...      4
Auxiliary J/K fitting basis                 ... NOT available
Auxiliary Correlation fitting basis         ... NOT available
Auxiliary 'external' fitting basis          ... NOT available

Checking pre-screening integrals            ... done (  0.0 sec) Dimension = 456
Check shell pair data                       ... done (  0.0 sec)
Shell pair information
Shell pair cut-off parameter TPreSel        ...   2.5e-12
Total number of shell pairs                 ...    104196
Shell pairs after pre-screening             ...     60010
Total number of primitive shell pairs       ...    317988
Primitive shell pairs kept                  ...    115844
          la=0 lb=0:  16132 shell pairs
          la=1 lb=0:  17890 shell pairs
          la=1 lb=1:   5016 shell pairs
          la=2 lb=0:   8179 shell pairs
          la=2 lb=1:   4677 shell pairs
          la=2 lb=2:   1080 shell pairs
          la=3 lb=0:   3739 shell pairs
          la=3 lb=1:   2168 shell pairs
          la=3 lb=2:    917 shell pairs
          la=3 lb=3:    212 shell pairs

Calculating one electron integrals          ... done (  0.1 sec)
Calculating RI/J V-Matrix + Cholesky decomp.... done (  0.2 sec)
Calculating Nuclear repulsion               ... done (  0.0 sec) ENN=   3224.658170464158 Eh

Diagonalization of the overlap matrix:
Smallest eigenvalue                        ... 6.191e-06
Time for diagonalization                   ...    0.229 sec
Threshold for overlap eigenvalues          ... 1.000e-07
Number of eigenvalues below threshold      ... 0
Time for construction of square roots      ...    0.105 sec
Total time needed                          ...    0.346 sec

-------------------
DFT GRID GENERATION
-------------------

General Integration Accuracy     IntAcc      ... 4.388
Radial Grid Type                 RadialGrid  ... OptM3 with GC (2021)
Angular Grid (max. ang.)         AngularGrid ... 4 (Lebedev-302)
Angular grid pruning method      GridPruning ... 4 (adaptive)
Weight generation scheme         WeightScheme... mBecke (2022)
Basis function cutoff            BFCut       ... 1.0000e-11
Integration weight cutoff        WCut        ... 1.0000e-14
Partially contracted basis set               ... off
Rotationally invariant grid construction     ... off
Angular grids for H and He will be reduced by one unit

Total number of grid points                  ...   274187
Total number of batches                      ...     4312
Average number of points per batch           ...       63
Average number of grid points per atom       ...     4727

--------------------
COSX GRID GENERATION
--------------------

GRIDX 1
-------
General Integration Accuracy     IntAcc      ... 3.816
Radial Grid Type                 RadialGrid  ... OptM3 with GC (2021)
Angular Grid (max. ang.)         AngularGrid ... 1 (Lebedev-50)
Angular grid pruning method      GridPruning ... 4 (adaptive)
Weight generation scheme         WeightScheme... mBecke (2022)
Basis function cutoff            BFCut       ... 1.0000e-11
Integration weight cutoff        WCut        ... 1.0000e-14
Partially contracted basis set               ... on
Rotationally invariant grid construction     ... off
Angular grids for H and He will be reduced by one unit

Total number of grid points                  ...    34703
Total number of batches                      ...      309
Average number of points per batch           ...      112
Average number of grid points per atom       ...      598
UseSFitting                                  ... on

GRIDX 2
-------
General Integration Accuracy     IntAcc      ... 4.020
Radial Grid Type                 RadialGrid  ... OptM3 with GC (2021)
Angular Grid (max. ang.)         AngularGrid ... 2 (Lebedev-110)
Angular grid pruning method      GridPruning ... 4 (adaptive)
Weight generation scheme         WeightScheme... mBecke (2022)
Basis function cutoff            BFCut       ... 1.0000e-11
Integration weight cutoff        WCut        ... 1.0000e-14
Partially contracted basis set               ... on
Rotationally invariant grid construction     ... off
Angular grids for H and He will be reduced by one unit

Total number of grid points                  ...    74979
Total number of batches                      ...      619
Average number of points per batch           ...      121
Average number of grid points per atom       ...     1293
UseSFitting                                  ... on

GRIDX 3
-------
General Integration Accuracy     IntAcc      ... 4.338
Radial Grid Type                 RadialGrid  ... OptM3 with GC (2021)
Angular Grid (max. ang.)         AngularGrid ... 3 (Lebedev-194)
Angular grid pruning method      GridPruning ... 4 (adaptive)
Weight generation scheme         WeightScheme... mBecke (2022)
Basis function cutoff            BFCut       ... 1.0000e-11
Integration weight cutoff        WCut        ... 1.0000e-14
Partially contracted basis set               ... on
Rotationally invariant grid construction     ... off
Angular grids for H and He will be reduced by one unit

Total number of grid points                  ...   163531
Total number of batches                      ...     1305
Average number of points per batch           ...      125
Average number of grid points per atom       ...     2820
UseSFitting                                  ... on
Initializing property integral containers    ... done (  0.0 sec)

SHARK setup successfully completed in   4.4 seconds

Maximum memory used throughout the entire STARTUP-calculation: 125.8 MB


           ************************************************************
           *        Program running with 25 parallel MPI-processes    *
           *              working on a common directory               *
           ************************************************************
-------------------------------------------------------------------------------
                                 ORCA GUESS
                   Start orbitals & Density for SCF / CASSCF
-------------------------------------------------------------------------------

------------
SCF SETTINGS
------------
Hamiltonian:
 Density Functional     Method          .... DFT(GTOs)
 Exchange Functional    Exchange        .... B88
   X-Alpha parameter    XAlpha          ....  0.666667
   Becke's b parameter  XBeta           ....  0.004200
 Correlation Functional Correlation     .... LYP
 LDA part of GGA corr.  LDAOpt          .... VWN-5
 Gradients option       PostSCFGGA      .... off
 Hybrid DFT is turned on
   Fraction HF Exchange ScalHFX         ....  0.200000
   Scaling of DF-GGA-X  ScalDFX         ....  0.720000
   Scaling of DF-GGA-C  ScalDFC         ....  0.810000
   Scaling of DF-LDA-C  ScalLDAC        ....  1.000000
   Perturbative correction              ....  0.000000
   NL short-range parameter             ....  4.800000
 RI-approximation to the Coulomb term is turned on
   Number of AuxJ basis functions       .... 1854
   RIJ-COSX (HFX calculated with COS-X)).... on


General Settings:
 Integral files         IntName         .... honokiol2-opt_EC2
 Hartree-Fock type      HFTyp           .... RHF
 Total Charge           Charge          ....    0
 Multiplicity           Mult            ....    1
 Number of Electrons    NEL             ....  234
 Basis Dimension        Dim             .... 1148
 Nuclear Repulsion      ENuc            ....   3224.6581704642 Eh

Convergence Acceleration:
 AO-DIIS                CNVDIIS         .... on
   Start iteration      DIISMaxIt       ....    12
   Startup error        DIISStart       ....  0.200000
   # of expansion vecs  DIISMaxEq       ....     5
   Bias factor          DIISBfac        ....   1.050
   Max. coefficient     DIISMaxC        ....  10.000
 MO-DIIS                CNVKDIIS        .... off
 Trust-Rad. Augm. Hess. CNVTRAH         .... auto
   Auto Start mean grad. ratio tolernc. ....  1.125000
   Auto Start start iteration           ....    50
   Auto Start num. interpolation iter.  ....    10
   Max. Number of Micro iterations      ....    24
   Max. Number of Macro iterations      .... Maxiter - #DIIS iter
   Number of Davidson start vectors     ....     2
   Converg. threshold    (grad. norm)   ....   1.000e-05
   Grad. Scal. Fac. for Micro threshold ....   0.100
   Minimum threshold for Micro iter.    ....   1.000e-02
   NR start threshold (gradient norm)   ....   1.000e-04
   Initial trust radius                 ....   0.400
   Minimum AH scaling param. (alpha)    ....   1.000
   Maximum AH scaling param. (alpha)    .... 1000.000
   Quad. conv. algorithm                .... NR
   White noise on init. David. guess    .... on
   Maximum white noise                  ....   0.010
   Pseudo random numbers                .... off
   Inactive MOs                         .... canonical
   Orbital update algorithm             .... Taylor
   Preconditioner                       .... Diag
   Full preconditioner red. dimension   ....   250
 SOSCF                  CNVSOSCF        .... on
   Start iteration      SOSCFMaxIt      ....   150
   Startup grad/error   SOSCFStart      ....  0.003300
   Hessian update       SOSCFHessUp     .... L-BFGS
 Level Shifting         CNVShift        .... on
   Level shift para.    LevelShift      ....    0.2500
   Turn off err/grad.   ShiftErr        ....    0.0010
 Zerner damping         CNVZerner       .... off
 Static damping         CNVDamp         .... on
   Fraction old density DampFac         ....    0.7000
   Max. Damping (<1)    DampMax         ....    0.9800
   Min. Damping (>=0)   DampMin         ....    0.0000
   Turn off err/grad.   DampErr         ....    0.1000

SCF Procedure:
 Maximum # iterations   MaxIter         ....   125
 SCF integral mode      SCFMode         .... Direct
   Integral package                     .... SHARK and LIBINT hybrid scheme
 Reset frequency        DirectResetFreq ....    20
 Integral Threshold     Thresh          ....  2.500e-11 Eh
 Primitive CutOff       TCut            ....  2.500e-12 Eh

Convergence Tolerance:
 Convergence Check Mode ConvCheckMode   .... Total+1el-Energy
 Convergence forced     ConvForced      .... 0
 Energy Change          TolE            ....  1.000e-08 Eh
 1-El. energy change                    ....  1.000e-05 Eh
 Orbital Gradient       TolG            ....  1.000e-05
 Orbital Rotation angle TolX            ....  1.000e-05
 DIIS Error             TolErr          ....  5.000e-07

------------------------------
INITIAL GUESS: MODEL POTENTIAL
------------------------------
Loading Hartree-Fock densities                     ... done
Calculating cut-offs                               ... done
Initializing the effective Hamiltonian             ... done
Setting up the integral package (SHARK)            ... done
Starting the Coulomb interaction                   ... done (   0.3 sec)
Making the grid                                    ... done (   0.3 sec)
Mapping shells                                     ... done
Starting the XC term evaluation                    ... done (   0.2 sec)
  promolecular density results
     # of electrons  =    233.996295852
     EX              =   -196.779108836
     EC              =     -8.022589782
     EX+EC           =   -204.801698618
Transforming the Hamiltonian                       ... done (   0.1 sec)
Diagonalizing the Hamiltonian                      ... done (   0.2 sec)
Back transforming the eigenvectors                 ... done (   0.1 sec)
Now organizing SCF variables                       ... done
                      ------------------
                      INITIAL GUESS DONE (   1.3 sec)
                      ------------------
             **** ENERGY FILE WAS UPDATED (honokiol2-opt_EC2.en.tmp) ****
Finished Guess after   2.2 sec
Maximum memory used throughout the entire GUESS-calculation: 110.4 MB


           ************************************************************
           *        Program running with 25 parallel MPI-processes    *
           *              working on a common directory               *
           ************************************************************

-------------------------------------------------------------------------------------------
                                      ORCA LEAN-SCF
                              memory conserving SCF solver
-------------------------------------------------------------------------------------------

----------------------------------------D-I-I-S--------------------------------------------
Iteration    Energy (Eh)           Delta-E    RMSDP     MaxDP     DIISErr   Damp  Time(sec)
-------------------------------------------------------------------------------------------
               ***  Starting incremental Fock matrix formation  ***
    1    -1530.7957528918618664     0.00e+00  1.08e-03  1.34e-01  3.10e-01  0.700   7.2
    2    -1531.2255836735880621    -4.30e-01  9.55e-04  1.50e-01  1.16e-01  0.700   4.5
                               ***Turning on AO-DIIS***
    3    -1531.3923989771215020    -1.67e-01  3.85e-04  5.10e-02  3.88e-02  0.700   4.0
    4    -1531.4947074434971910    -1.02e-01  5.36e-04  4.90e-02  1.84e-02  0.000   3.8
[...]
  12 C     6.0000    0    12.011    7.066667   -1.206772   -4.362220
  13 C     6.0000    0    12.011    7.188961    1.947352   -0.741671
  14 C     6.0000    0    12.011   -3.119298   -1.941202    4.718604
  15 C     6.0000    0    12.011    6.105235    3.115484    1.338913
  16 C     6.0000    0    12.011   -8.456149   -2.783565   -1.698723
  17 C     6.0000    0    12.011    5.608832   -0.852270   -6.776484
  18 C     6.0000    0    12.011  -10.958052   -2.884556   -1.470509
  19 C     6.0000    0    12.011    4.709742   -2.704756   -8.210342
  20 H     1.0000    0     1.008   -1.960885    0.693727   -1.942910
  21 H     1.0000    0     1.008    2.414933   -1.971256   -2.294268
  22 H     1.0000    0     1.008    0.827382   -1.366784    5.355635
  23 H     1.0000    0     1.008   -8.119973    1.104890   -0.694951
  24 H     1.0000    0     1.008   -6.061928    0.117518   -3.083271
  25 H     1.0000    0     1.008    7.275141   -3.231846   -3.988083
  26 H     1.0000    0     1.008    8.979103   -0.457522   -4.617816
  27 H     1.0000    0     1.008    9.082578    2.480360   -1.315780
  28 H     1.0000    0     1.008   -3.472302   -2.724629    6.574012
  29 H     1.0000    0     1.008    7.107707    4.565137    2.377543
  30 H     1.0000    0     1.008   -7.424636   -4.481233   -2.225726
  31 H     1.0000    0     1.008    5.286352    1.097404   -7.338668
  32 H     1.0000    0     1.008    1.002137    3.397783    4.496312
  33 H     1.0000    0     1.008   -8.630712   -2.624457    2.526968
  34 H     1.0000    0     1.008  -11.994502   -4.613901   -1.818671
  35 H     1.0000    0     1.008  -12.053083   -1.227819   -0.962498
  36 H     1.0000    0     1.008    3.679047   -2.323555   -9.937702
  37 H     1.0000    0     1.008    4.980822   -4.674062   -7.713045
  38 H     1.0000    0     1.008   -9.810798    5.132191    8.123211
  39 H     1.0000    0     1.008   -7.985220    2.216039   11.107484
  40 C     6.0000    0    12.011   -8.668325    3.660317    7.250021
  41 O     8.0000    0    15.999   -4.743539    2.556229    8.983756
  42 C     6.0000    0    12.011   -4.363441    4.146262    7.043807
  43 C     6.0000    0    12.011   -7.380311    1.899092    9.167189
  44 O     8.0000    0    15.999   -6.573367    4.846526    5.984011
  45 O     8.0000    0    15.999   -2.346525    4.883175    6.339913
  46 H     1.0000    0     1.008   -9.776197    2.657150    5.839395
  47 H     1.0000    0     1.008   -7.589092   -0.087842    8.671681
  48 O     8.0000    0    15.999  -10.916217    4.893390    0.906974
  49 C     6.0000    0    12.011   -9.307072    6.466474    1.082887
  50 O     8.0000    0    15.999   -7.105676    6.433791   -0.198046
  51 O     8.0000    0    15.999   -9.452734    8.517853    2.590353
  52 C     6.0000    0    12.011   -5.442646    8.362491    0.755247
  53 C     6.0000    0    12.011   -7.203019   10.021306    2.350592
  54 H     1.0000    0     1.008   -3.973022    7.458075    1.875254
  55 H     1.0000    0     1.008   -7.707129   11.794788    1.433524
  56 H     1.0000    0     1.008   -4.611731    9.350308   -0.842832
  57 H     1.0000    0     1.008   -6.460550   10.391745    4.230499

--------------------------------
INTERNAL COORDINATES (ANGSTROEM)
--------------------------------
 O      0   0   0     0.000000000000     0.00000000     0.00000000
 O      1   0   0     6.314572771149     0.00000000     0.00000000
 C      1   2   0     2.443662758316    63.44593642     0.00000000
 C      3   1   2     1.485986595469    94.42808551     0.11245100
 C      2   1   3     2.436444969935    47.63687221   323.75235658
 C      5   2   1     1.394045516372   145.86138291    25.18546255
 C      3   1   2     2.450012780164   117.03640327   180.21171043
 C      7   3   1     1.392570807901    28.64515458   181.54975164
 C      1   2   3     1.358560142584    91.92526776   359.32118244
 C      4   3   1     1.397965962284   121.45477533   300.75454963
 C      2   1   3     1.371330663272    25.85125238   357.30005854
 C      5   2   1     1.517093193571    93.73280848   209.27339828
 C      7   3   1     1.518549220135   149.55649339   179.08421843
 C      7   3   1     1.394656197863    88.97748965     1.07704843
 C     10   4   3     1.385761602588   120.73811782   180.94157620
 C     14   7   3     1.386790115047   121.07480420   359.51243428
 C     12   5   2     1.505492717688   114.65080597   305.97457393
 C     13   7   3     1.504169785787   113.66720124    61.98348589
 C     17  12   5     1.330520371264   124.65072538   126.61409391
 C     18  13   7     1.327803903794   125.24375054   236.90978674
 H      6   5   2     1.084194700924   118.37857960   183.23780556
 H      8   7   3     1.084888927602   119.11450579   181.27082429
 H     10   4   3     1.082809951813   119.81325381   359.84437959
 H     12   5   2     1.094027502162   110.50621551    69.91688884
 H     12   5   2     1.092719746722   107.53226765   185.37060874
 H     13   7   3     1.095328395569   110.22464444   299.15067984
 H     13   7   3     1.095296987713   108.22907949   183.08928942
 H     14   7   3     1.084424018177   119.67613493   179.47277182
 H     15  10   4     1.082022865163   120.77422594   178.93100486
 H     16  14   7     1.082577496760   121.08334676   180.85426499
 H     17  12   5     1.087562725698   116.04009673   306.61099775
 H     18  13   7     1.087233819192   115.54713505    56.56313117
 H      1   2   3     0.969405276767    22.92081384   157.04962479
 H      2   1   3     0.970385429316   128.84456000   307.92881800
 H     19  17  12     1.082691635602   121.50542558   179.27728966
 H     19  17  12     1.084741563274   121.43892974     0.47884384
 H     20  18  13     1.083382155936   121.67295908   180.28963129
 H     20  18  13     1.084355870274   121.56303492   359.96161851
 H      2   1   3     4.715467324759    77.54103222   204.70313598
 H     39   2   1     2.410084701430    70.36968763   276.37820087
 C     39   2   1     1.088886660386    18.57060995   350.10783965
 O     40  39   2     2.058658632927    85.42943816    62.83445593
 C     42  40  39     1.342492647257   126.66199433     6.34341929
 C     40  39   2     1.088500138121    66.32508273    24.33960190
 O     43  42  40     1.348862889447   111.11366822   336.55167141
 O     43  42  40     1.195806759713   125.19094052   155.84927790
 H     41  39   2     1.087532154625   109.94542149    25.76179635
 H     44  40  39     1.089260222192   110.24148978   229.45264889
 O     24  12   5     2.631978248892   176.88685293     4.44045900
 C     49  24  12     1.194451136879    98.92579952    49.74870507
 O     50  49  24     1.347896532372   124.61036992    23.47753284
 O     50  49  24     1.349331956376   124.47362809   203.38659877
 C     51  50  49     1.438965406195   110.06951521   189.38334406
 C     52  50  49     1.437481145754   110.22896419   180.04174131
 H     53  51  50     1.088637262359   108.41728420   105.67925997
 H     54  52  50     1.089691420980   108.25386165   112.10070631
 H     53  51  50     1.087076717688   108.40384181   225.35577738
 H     54  52  50     1.087396041624   108.55810188   231.38043014

---------------------------
INTERNAL COORDINATES (A.U.)
---------------------------
 O      0   0   0     0.000000000000     0.00000000     0.00000000
 O      1   0   0    11.932813190188     0.00000000     0.00000000
 C      1   2   0     4.617853376880    63.44593642     0.00000000
 C      3   1   2     2.808107704114    94.42808551     0.11245100
 C      2   1   3     4.604213733548    47.63687221   323.75235658
 C      5   2   1     2.634364244164   145.86138291    25.18546255
 C      3   1   2     4.629853179116   117.03640327   180.21171043
 C      7   3   1     2.631577449026    28.64515458   181.54975164
 C      1   2   3     2.567306605945    91.92526776   359.32118244
 C      4   3   1     2.641772813260   121.45477533   300.75454963
 C      2   1   3     2.591439392632    25.85125238   357.30005854
 C      5   2   1     2.866890655484    93.73280848   209.27339828
 C      7   3   1     2.869642146934   149.55649339   179.08421843
 C      7   3   1     2.635518264938    88.97748965     1.07704843
 C     10   4   3     2.618709915795   120.73811782   180.94157620
 C     14   7   3     2.620653522668   121.07480420   359.51243428
 C     12   5   2     2.844968933043   114.65080597   305.97457393
 C     13   7   3     2.842468954057   113.66720124    61.98348589
 C     17  12   5     2.514319117292   124.65072538   126.61409391
 C     18  13   7     2.509185737722   125.24375054   236.90978674
 H      6   5   2     2.048831060596   118.37857960   183.23780556
 H      8   7   3     2.050142958892   119.11450579   181.27082429
 H     10   4   3     2.046214264011   119.81325381   359.84437959
 H     12   5   2     2.067412362063   110.50621551    69.91688884
 H     12   5   2     2.064941062432   107.53226765   185.37060874
 H     13   7   3     2.069870694334   110.22464444   299.15067984
 H     13   7   3     2.069811342086   108.22907949   183.08928942
 H     14   7   3     2.049264407401   119.67613493   179.47277182
 H     15  10   4     2.044726885798   120.77422594   178.93100486
 H     16  14   7     2.045774987623   121.08334676   180.85426499
 H     17  12   5     2.055195705030   116.04009673   306.61099775
 H     18  13   7     2.054574161809   115.54713505    56.56313117
 H      1   2   3     1.831910485868    22.92081384   157.04962479
 H      2   1   3     1.833762705755   128.84456000   307.92881800
 H     19  17  12     2.045990678775   121.50542558   179.27728966
 H     19  17  12     2.049864480669   121.43892974     0.47884384
 H     20  18  13     2.047295573097   121.67295908   180.28963129
 H     20  18  13     2.049135626528   121.56303492   359.96161851
 H      2   1   3     8.910941837248    77.54103222   204.70313598
 H     39   2   1     4.554400045255    70.36968763   276.37820087
 C     39   2   1     2.057697579010    18.57060995   350.10783965
 O     40  39   2     3.890301019465    85.42943816    62.83445593
 C     42  40  39     2.536943440118   126.66199433     6.34341929
 C     40  39   2     2.056967157785    66.32508273    24.33960190
 O     43  42  40     2.548981453264   111.11366822   336.55167141
 O     43  42  40     2.259747284949   125.19094052   155.84927790
 H     41  39   2     2.055137934075   109.94542149    25.76179635
 H     44  40  39     2.058403508516   110.24148978   229.45264889
 O     24  12   5     4.973718080843   176.88685293     4.44045900
 C     49  24  12     2.257185529053    98.92579952    49.74870507
 O     50  49  24     2.547155303046   124.61036992    23.47753284
 O     50  49  24     2.549867861299   124.47362809   203.38659877
 C     51  50  49     2.719250533895   110.06951521   189.38334406
 C     52  50  49     2.716445688150   110.22896419   180.04174131
 H     53  51  50     2.057226285040   108.41728420   105.67925997
 H     54  52  50     2.059218356135   108.25386165   112.10070631
 H     53  51  50     2.054277282993   108.40384181   225.35577738
 H     54  52  50     2.054880717778   108.55810188   231.38043014



           ************************************************************
           *        Program running with 25 parallel MPI-processes    *
           *              working on a common directory               *
           ************************************************************
------------------------------------------------------------------------------
                   ___                                                        
                  /   \      - P O W E R E D   B Y -                         
                 /     \                                                     
                 |  |  |   _    _      __       _____    __    __             
                 |  |  |  | |  | |    /  \     |  _  \  |  |  /  |          
                  \  \/   | |  | |   /    \    | | | |  |  | /  /          
                 / \  \   | |__| |  /  /\  \   | |_| |  |  |/  /          
                |  |  |   |  __  | /  /__\  \  |    /   |      \           
                |  |  |   | |  | | |   __   |  |    \   |  |\   \          
                \     /   | |  | | |  |  |  |  | |\  \  |  | \   \       
                 \___/    |_|  |_| |__|  |__|  |_| \__\ |__|  \__/        
                                                                              
                      - O R C A' S   B I G   F R I E N D -                    
                                      &                                       
                       - I N T E G R A L  F E E D E R -                       
                                                                              
 v1 FN, 2020, v2 2021, v3 2022-2024                                           
------------------------------------------------------------------------------


----------------------
SHARK INTEGRAL PACKAGE
----------------------

Number of atoms                             ...     58
Number of basis functions                   ...   1148
Number of shells                            ...    456
Maximum angular momentum                    ...      3
Integral batch strategy                     ... SHARK/LIBINT Hybrid
RI-J (if used) integral strategy            ... SPLIT-RIJ (Revised 2003 algorithm where possible)
Printlevel                                  ...      1
Contraction scheme used                     ... SEGMENTED contraction
Prescreening option                         ... SCHWARTZ
   Thresh                                   ... 2.500e-11
   Tcut                                     ... 2.500e-12
   Tpresel                                  ... 2.500e-12 
Coulomb Range Separation                    ... NOT USED
Exchange Range Separation                   ... NOT USED
Multipole approximations                    ... NOT USED
Finite Nucleus Model                        ... NOT USED
CABS basis                                  ... NOT available
Auxiliary Coulomb fitting basis             ... AVAILABLE
   # of basis functions in Aux-J            ...   1854
   # of shells in Aux-J                     ...    610
   Maximum angular momentum in Aux-J        ...      4
Auxiliary J/K fitting basis                 ... NOT available
Auxiliary Correlation fitting basis         ... NOT available
Auxiliary 'external' fitting basis          ... NOT available

Checking pre-screening integrals            ... done (  0.0 sec) Dimension = 456
Check shell pair data                       ... done (  0.0 sec)
Shell pair information
Shell pair cut-off parameter TPreSel        ...   2.5e-12
Total number of shell pairs                 ...    104196
Shell pairs after pre-screening             ...     61447
Total number of primitive shell pairs       ...    317988
Primitive shell pairs kept                  ...    118693
          la=0 lb=0:  16341 shell pairs
          la=1 lb=0:  18220 shell pairs
          la=1 lb=1:   5110 shell pairs
          la=2 lb=0:   8445 shell pairs
          la=2 lb=1:   4841 shell pairs
          la=2 lb=2:   1140 shell pairs
          la=3 lb=0:   3852 shell pairs
          la=3 lb=1:   2271 shell pairs
          la=3 lb=2:    987 shell pairs
          la=3 lb=3:    240 shell pairs

Calculating one electron integrals          ... done (  0.1 sec)
Calculating RI/J V-Matrix + Cholesky decomp.... done (  0.2 sec)
Calculating Nuclear repulsion               ... done (  0.0 sec) ENN=   3299.657923411001 Eh

Diagonalization of the overlap matrix:
Smallest eigenvalue                        ... 5.465e-06
Time for diagonalization                   ...    0.229 sec
Threshold for overlap eigenvalues          ... 1.000e-07
Number of eigenvalues below threshold      ... 0
Time for construction of square roots      ...    0.105 sec
Total time needed                          ...    0.346 sec

-------------------
DFT GRID GENERATION
-------------------

General Integration Accuracy     IntAcc      ... 4.388
Radial Grid Type                 RadialGrid  ... OptM3 with GC (2021)
Angular Grid (max. ang.)         AngularGrid ... 4 (Lebedev-302)
Angular grid pruning method      GridPruning ... 4 (adaptive)
Weight generation scheme         WeightScheme... mBecke (2022)
Basis function cutoff            BFCut       ... 1.0000e-11
Integration weight cutoff        WCut        ... 1.0000e-14
Partially contracted basis set               ... off
Rotationally invariant grid construction     ... off
Angular grids for H and He will be reduced by one unit

Total number of grid points                  ...   273959
Total number of batches                      ...     4310
Average number of points per batch           ...       63
Average number of grid points per atom       ...     4723

--------------------
COSX GRID GENERATION
--------------------

GRIDX 1
-------
General Integration Accuracy     IntAcc      ... 3.816
Radial Grid Type                 RadialGrid  ... OptM3 with GC (2021)
Angular Grid (max. ang.)         AngularGrid ... 1 (Lebedev-50)
Angular grid pruning method      GridPruning ... 4 (adaptive)
Weight generation scheme         WeightScheme... mBecke (2022)
Basis function cutoff            BFCut       ... 1.0000e-11
Integration weight cutoff        WCut        ... 1.0000e-14
Partially contracted basis set               ... on
Rotationally invariant grid construction     ... off
Angular grids for H and He will be reduced by one unit

Total number of grid points                  ...    34698
Total number of batches                      ...      308
Average number of points per batch           ...      112
Average number of grid points per atom       ...      598
UseSFitting                                  ... on

GRIDX 2
-------
General Integration Accuracy     IntAcc      ... 4.020
Radial Grid Type                 RadialGrid  ... OptM3 with GC (2021)
Angular Grid (max. ang.)         AngularGrid ... 2 (Lebedev-110)
Angular grid pruning method      GridPruning ... 4 (adaptive)
Weight generation scheme         WeightScheme... mBecke (2022)
Basis function cutoff            BFCut       ... 1.0000e-11
Integration weight cutoff        WCut        ... 1.0000e-14
Partially contracted basis set               ... on
Rotationally invariant grid construction     ... off
Angular grids for H and He will be reduced by one unit

Total number of grid points                  ...    74865
Total number of batches                      ...      619
Average number of points per batch           ...      120
Average number of grid points per atom       ...     1291
UseSFitting                                  ... on

GRIDX 3
-------
General Integration Accuracy     IntAcc      ... 4.338
Radial Grid Type                 RadialGrid  ... OptM3 with GC (2021)
Angular Grid (max. ang.)         AngularGrid ... 3 (Lebedev-194)
Angular grid pruning method      GridPruning ... 4 (adaptive)
Weight generation scheme         WeightScheme... mBecke (2022)
Basis function cutoff            BFCut       ... 1.0000e-11
Integration weight cutoff        WCut        ... 1.0000e-14
Partially contracted basis set               ... on
Rotationally invariant grid construction     ... off
Angular grids for H and He will be reduced by one unit

Total number of grid points                  ...   163342
Total number of batches                      ...     1304
Average number of points per batch           ...      125
Average number of grid points per atom       ...     2816
UseSFitting                                  ... on
Initializing property integral containers    ... done (  0.0 sec)

SHARK setup successfully completed in   4.6 seconds

Maximum memory used throughout the entire STARTUP-calculation: 138.0 MB

ORCA finished by error termination in GUESS
Calling Command: mpirun -np 25  /home/yongsang/orca_6_0_1_linux_x86-64_shared_openmpi416/orca_guess_mpi honokiol2-opt_EC2.gbw honokiol2-opt_EC2 
[file orca_tools/qcmsg.cpp, line 394]: 
  .... aborting the run

