
                                 *****************
                                 * O   R   C   A *
                                 *****************

                                            #,                                       
                                            ###                                      
                                            ####                                     
                                            #####                                    
                                            ######                                   
                                           ########,                                 
                                     ,,################,,,,,                         
                               ,,#################################,,                 
                          ,,##########################################,,             
                       ,#########################################, ''#####,          
                    ,#############################################,,   '####,        
                  ,##################################################,,,,####,       
                ,###########''''           ''''###############################       
              ,#####''   ,,,,##########,,,,          '''####'''          '####       
            ,##' ,,,,###########################,,,                        '##       
           ' ,,###''''                  '''############,,,                           
         ,,##''                                '''############,,,,        ,,,,,,###''
      ,#''                                            '''#######################'''  
     '                                                          ''''####''''         
             ,#######,   #######,   ,#######,      ##                                
            ,#'     '#,  ##    ##  ,#'     '#,    #''#        ,####,   ,####,        
            ##       ##  ##   ,#'  ##            #'  '#       #'       #'  '#        
            ##       ##  #######   ##           ,######,      #####,   #    #        
            '#,     ,#'  ##    ##  '#,     ,#' ,#      #,     #,   #   #,  ,#        
             '#######'   ##     ##  '#######'  #'      '#     '####' # '####'        



                #########################################################
                #                        -***-                          #
                #          Department of theory and spectroscopy        #
                #                                                       #
                #                      Frank Neese                      #
                #                                                       #
                #     Directorship, Architecture, Infrastructure        #
                #                    SHARK, DRIVERS                     #
                #        Core code/Algorithms in most modules           #
                #                                                       #
                #        Max Planck Institute fuer Kohlenforschung      #
                #                Kaiser Wilhelm Platz 1                 #
                #                 D-45470 Muelheim/Ruhr                 #
                #                      Germany                          #
                #                                                       #
                #                  All rights reserved                  #
                #                        -***-                          #
                #########################################################


                         Program Version 6.0.1  -  RELEASE   -


 With contributions from (in alphabetic order):
[Max-Planck-Institut fuer Kohlenforschung]                               
  Daniel Aravena         : Magnetic Suceptibility                        
  Michael Atanasov       : Ab Initio Ligand Field Theory (pilot matlab implementation)
  Alexander A. Auer      : GIAO ZORA, VPT2 properties, NMR spectrum      
  Ute Becker             : All parallelization in ORCA, NUMFREQ, NUMCALC 
  Giovanni Bistoni       : ED, misc. LED, open-shell LED, HFLD           
  Martin Brehm           : Molecular dynamics                            
  Dmytro Bykov           : pre 5.0 version of the SCF Hessian            
  Marcos Casanova-Páez   : Triplet and SCS-CIS(D). UHF-(DLPNO)-IP/EA/STEOM-CCSD. UHF-CVS-IP/STEOM-CCSD   
  Vijay G. Chilkuri      : MRCI spin determinant printing, contributions to CSF-ICE 
  Pauline Colinet        : FMM embedding                                 
  Dipayan Datta          : RHF DLPNO-CCSD density                        
  Achintya Kumar Dutta   : EOM-CC, STEOM-CC                              
  Nicolas Foglia         : Exact transition moments, OPA infrastructure, MCD improvements    
  Dmitry Ganyushin       : Spin-Orbit,Spin-Spin,Magnetic field MRCI      
  Miquel Garcia-Rates    : C-PCM and meta-GGA Hessian, CCSD/C-PCM, Gaussian charge scheme 
  Tiago L. C. Gouveia    : GS-ROHF, GS-ROCIS                             
  Yang Guo               : DLPNO-NEVPT2, F12-NEVPT2, CIM, IAO-localization        
  Andreas Hansen         : Spin unrestricted coupled pair/coupled cluster methods 
  Ingolf Harden          : AUTO-CI MPn and infrastructure                
  Benjamin Helmich-Paris : MC-RPA, TRAH-(SCF,CASSCF), AVAS, COSX integrals, SCF dyn. polar. 
  Lee Huntington         : MR-EOM, pCC                                   
  Robert Izsak           : Overlap fitted RIJCOSX, COSX-SCS-MP3, EOM     
  Riya Kayal             : Wick's Theorem for AUTO-CI, AUTO-CI UHF-CCSDT 
  Emily Kempfer          : AUTO-CI, RHF CISDT and CCSDT                  
  Christian Kollmar      : KDIIS, OOCD, Brueckner-CCSD(T), CCSD density, CASPT2, CASPT2-K, improved NEVPT2 
  Axel Koslowski         : Symmetry handling                             
  Simone Kossmann        : meta-GGA functionals, TD-DFT gradient, OOMP2, (MP2 Hessian; deprecated post 5.0) 
  Lucas Lang             : DCDCAS                                        
  Marvin Lechner         : AUTO-CI (C++ implementation), FIC-MRCC        
  Spencer Leger          : CASSCF response                               
  Dagmar Lenk            : GEPOL surface, SMD, ORCA-2-JSON               
  Dimitrios Liakos       : Extrapolation schemes; Compound Job, initial MDCI parallelization 
  Dimitrios Manganas     : Further ROCIS development; embedding schemes. LFT, Crystal Embedding 
  Dimitrios Pantazis     : SARC Basis sets                               
  Anastasios Papadopoulos: AUTO-CI, single reference methods and gradients 
  Taras Petrenko         : pre 6.0 DFT Hessian and TD-DFT gradient, (ASA, deprecated), ECA, 1-Electron XAS/XES, NRVS 
  Peter Pinski           : DLPNO-MP2, DLPNO-MP2 Gradient                 
  Christoph Reimann      : Effective Core Potentials                     
  Marius Retegan         : Local ZFS, SOC                                
  Christoph Riplinger    : Optimizer, TS searches, QM/MM, DLPNO-CCSD(T), (RO)-DLPNO pert. Triples 
  Michael Roemelt        : Original ROCIS implementation                 
  Masaaki Saitow         : Open-shell DLPNO-CCSD energy and density      
  Barbara Sandhoefer     : DKH picture change effects                    
  Kantharuban Sivalingam : CASSCF convergence/infrastructure, NEVPT2 and variants, FIC-MRCI 
  Bernardo de Souza      : ESD, SOC TD-DFT                               
  Georgi L. Stoychev     : AutoAux, RI-MP2 NMR, DLPNO-MP2 response, X2C  
  Van Anh Tran           : RI-MP2 g-tensors                              
  Willem Van den Heuvel  : Paramagnetic NMR                              
  Zikuan Wang            : NOTCH, Electric field optimization            
  Frank Wennmohs         : Technical directorship and infrastructure     
  Hang Xu                : AUTO-CI-Response properties                   
                                                                         
[FACCTs GmbH]                                                            
  Markus Bursch, Miquel Garcia-Rates, Christoph Riplinger, Bernardo de Souza, Georgi L. Stoychev 
                                                                 
  APM, Basis sets (HGBS, AHGBS, def-TZVP (Ac-Lr), def2-XVPD (La-Lu)), CI-OPT, improved COSX, DLPNO-Multilevel,           
  DOCKER, DRACO, updates on ESD, GOAT, IRC, LR-CPCM, MBIS, meta-GGA TD-DFT gradient, ML-optimized integration grids, 
  MM, NACMEs, nearIR, NEB, NEB-TS, NL-DFT gradient (VV10), 2- and 3-layer-ONIOM, interface openCOSMO-RS, QMMM,   
  Crystal-QMMM, SF, symmetry and pop. for TD-DFT, r2SCAN hybrids, SOLVATOR                                   
                                                                         
[Other institutions]                                                     
  V. Asgeirsson          : NEB                                           
  Christoph Bannwarth    : sTDA-DFT, sTD-DFT, PBEh-3c, B97-3c, D3        
  Sebastian Ehlert       : rSCAN, r2SCAN, r2SCAN-3c, D4, dhf basis sets  
  Marvin Friede          : D4 for Fr, Ra, Ac-Lr                          
  Lars Goerigk           : TD-DFT with DH, B97 family of functionals     
  Stefan Grimme          : VdW corrections, initial TS optimization, DFT functionals, gCP, sTDA/sTD-DF 
  Waldemar Hujo          : DFT-NL                                        
  H. Jonsson             : NEB                                           
  Holger Kruse           : gCP                                           
  Marcel Mueller         : wB97X-3c, vDZP basis set                      
  Hagen Neugebauer       : wr2SCAN                                       
  Tobias Risthaus        : range-separated hybrid DFT                    
  Lukas Wittmann         : regularized MP2, r2SCAN double-hybrids, wr2SCAN        
                                                                         
We gratefully acknowledge several colleagues who have allowed us to      
interface, adapt or use parts of their codes:                            
  Ed Valeev, F. Pavosevic, A. Kumar             : LibInt (2-el integral package), F12 methods 
  Garnet Chan, S. Sharma, J. Yang, R. Olivares  : DMRG                   
  Ulf Ekstrom                                   : XCFun DFT Library      
  Mihaly Kallay                                 : mrcc  (arbitrary order and MRCC methods)
  Frank Weinhold                                : gennbo (NPA and NBO analysis)           
  Simon Mueller                                 : openCOSMO-RS                            
  Christopher J. Cramer and Donald G. Truhlar   : smd solvation model                     
  S Lehtola, MJT Oliveira, MAL Marques          : LibXC Library                           
  Liviu Ungur et al                             : ANISO software                          


 Your calculation uses the libint2 library for the computation of 2-el integrals
 For citations please refer to: http://libint.valeyev.net

 Your ORCA version has been built with support for libXC version: 6.2.2
 For citations please refer to: https://libxc.gitlab.io

 This ORCA versions uses:
   CBLAS   interface :  Fast vector & matrix operations
   LAPACKE interface :  Fast linear algebra routines
   SCALAPACK package :  Parallel linear algebra routines
   Shared memory     :  Shared parallel matrices
   BLAS/LAPACK       :  OpenBLAS 0.3.27  USE64BITINT DYNAMIC_ARCH NO_AFFINITY SkylakeX SINGLE_THREADED
        Core in use  :  SkylakeX
   Copyright (c) 2011-2014, The OpenBLAS Project


NOTE: MaxCore=5000 MB was set to SCF,MP2,MDCI,CIPSI,MRCI and CIS
      => If you want to overwrite this, your respective input block should be placed after the MaxCore statement
Warning: RI is on but no J-basis has been assigned. Assigning Def2/J (nothing to worry about!)
================================================================================

----- Orbital basis set information -----
Your calculation utilizes the basis: def2-TZVP
   F. Weigend and R. Ahlrichs, Phys. Chem. Chem. Phys. 7, 3297 (2005).

----- AuxJ basis set information -----
Your calculation utilizes the auxiliary basis: def2/J
   F. Weigend, Phys. Chem. Chem. Phys. 8, 1057 (2006).

================================================================================
                                        WARNINGS
                       Please study these warnings very carefully!
================================================================================


================================================================================
                                       INPUT FILE
================================================================================
NAME = DMC.inp
|  1> ! B3LYP def2-TZVP TightSCF
|  2> 
|  3> %maxcore 5000
|  4> 
|  5> %pal
|  6> nprocs 20
|  7> end
|  8> 
|  9> * xyz 0 1
| 10> O          -1.08158434213460     -0.69949203386043     -0.00029384953328
| 11>   O           1.08156709072262     -0.69951411011076     -0.00029875359222
| 12>   O           0.00001115410751      1.29105669202063     -0.00053645954557
| 13>   C          -0.00000090812354      0.08621701853758     -0.00040045244727
| 14>   C          -2.33975374306940     -0.00753366353516     -0.00037828061840
| 15>   C           2.33975221335991     -0.00758499844838     -0.00038522351369
| 16>   H          -2.43369391304047      0.61627864615352      0.88806397613549
| 17>   H          -3.09675261268268     -0.78710916988795     -0.00033901182921
| 18>   H          -2.43364678253281      0.61614410816935     -0.88891893815805
| 19>   H           3.09673226813191     -0.78717931573242     -0.00034157308033
| 20>   H           2.43370648603172      0.61622774986431      0.88805555676795
| 21>   H           2.43366308922984      0.61608907682972     -0.88892699058543
| 22> *
| 23> 
| 24>                          ****END OF INPUT****
================================================================================

                       ****************************
                       * Single Point Calculation *
                       ****************************

---------------------------------
CARTESIAN COORDINATES (ANGSTROEM)
---------------------------------
  O     -1.081584   -0.699492   -0.000294
  O      1.081567   -0.699514   -0.000299
  O      0.000011    1.291057   -0.000536
  C     -0.000001    0.086217   -0.000400
  C     -2.339754   -0.007534   -0.000378
  C      2.339752   -0.007585   -0.000385
  H     -2.433694    0.616279    0.888064
  H     -3.096753   -0.787109   -0.000339
  H     -2.433647    0.616144   -0.888919
  H      3.096732   -0.787179   -0.000342
  H      2.433706    0.616228    0.888056
  H      2.433663    0.616089   -0.888927

----------------------------
CARTESIAN COORDINATES (A.U.)
----------------------------
  NO LB      ZA    FRAG     MASS         X           Y           Z
   0 O     8.0000    0    15.999   -2.043898   -1.321848   -0.000555
   1 O     8.0000    0    15.999    2.043866   -1.321890   -0.000565
   2 O     8.0000    0    15.999    0.000021    2.439744   -0.001014
   3 C     6.0000    0    12.011   -0.000002    0.162927   -0.000757
   4 C     6.0000    0    12.011   -4.421494   -0.014237   -0.000715
   5 C     6.0000    0    12.011    4.421491   -0.014334   -0.000728
   6 H     1.0000    0     1.008   -4.599015    1.164598    1.678198
   7 H     1.0000    0     1.008   -5.852014   -1.487421   -0.000641
   8 H     1.0000    0     1.008   -4.598926    1.164344   -1.679813
   9 H     1.0000    0     1.008    5.851976   -1.487553   -0.000645
  10 H     1.0000    0     1.008    4.599039    1.164502    1.678182
  11 H     1.0000    0     1.008    4.598957    1.164240   -1.679829

--------------------------------
INTERNAL COORDINATES (ANGSTROEM)
--------------------------------
 O      0   0   0     0.000000000000     0.00000000     0.00000000
 O      1   0   0     2.163151432975     0.00000000     0.00000000
 O      1   2   0     2.265421176395    61.48245425     0.00000000
 C      3   1   2     1.204839681220    28.51755686     0.00000000
 C      1   2   3     1.435895760437   151.19100752     0.00000000
 C      2   1   3     1.435895436955   151.19116337     0.00000000
 H      5   1   2     1.089631220569   110.57181351   299.42818417
 H      5   1   2     1.086639434331   105.34864584   179.99667638
 H      5   1   2     1.089630380395   110.57173778    60.56515340
 H      6   2   1     1.086639822926   105.34856843   180.00267058
 H      6   2   1     1.089631483750   110.57179208    60.57127931
 H      6   2   1     1.089630706529   110.57192877   299.43429413

---------------------------
INTERNAL COORDINATES (A.U.)
---------------------------
 O      0   0   0     0.000000000000     0.00000000     0.00000000
 O      1   0   0     4.087763794523     0.00000000     0.00000000
 O      1   2   0     4.281025601372    61.48245425     0.00000000
 C      3   1   2     2.276817032787    28.51755686     0.00000000
 C      1   2   3     2.713449744084   151.19100752     0.00000000
 C      2   1   3     2.713449132793   151.19116337     0.00000000
 H      5   1   2     2.059104593846   110.57181351   299.42818417
 H      5   1   2     2.053450937205   105.34864584   179.99667638
 H      5   1   2     2.059103006146   110.57173778    60.56515340
 H      6   2   1     2.053451671544   105.34856843   180.00267058
 H      6   2   1     2.059105091185   110.57179208    60.57127931
 H      6   2   1     2.059103622452   110.57192877   299.43429413

---------------------
BASIS SET INFORMATION
---------------------
There are 3 groups of distinct atoms

 Group   1 Type O   : 11s6p2d1f contracted to 5s3p2d1f pattern {62111/411/11/1}
 Group   2 Type C   : 11s6p2d1f contracted to 5s3p2d1f pattern {62111/411/11/1}
 Group   3 Type H   : 5s1p contracted to 3s1p pattern {311/1}

Atom   0O    basis set group =>   1
Atom   1O    basis set group =>   1
Atom   2O    basis set group =>   1
Atom   3C    basis set group =>   2
Atom   4C    basis set group =>   2
Atom   5C    basis set group =>   2
Atom   6H    basis set group =>   3
Atom   7H    basis set group =>   3
Atom   8H    basis set group =>   3
Atom   9H    basis set group =>   3
Atom  10H    basis set group =>   3
Atom  11H    basis set group =>   3
---------------------------------
AUXILIARY/J BASIS SET INFORMATION
---------------------------------
There are 3 groups of distinct atoms

 Group   1 Type O   : 12s5p4d2f1g contracted to 6s4p3d1f1g pattern {711111/2111/211/2/1}
 Group   2 Type C   : 12s5p4d2f1g contracted to 6s4p3d1f1g pattern {711111/2111/211/2/1}
 Group   3 Type H   : 5s2p1d contracted to 3s1p1d pattern {311/2/1}

Atom   0O    basis set group =>   1
Atom   1O    basis set group =>   1
Atom   2O    basis set group =>   1
Atom   3C    basis set group =>   2
Atom   4C    basis set group =>   2
Atom   5C    basis set group =>   2
Atom   6H    basis set group =>   3
Atom   7H    basis set group =>   3
Atom   8H    basis set group =>   3
Atom   9H    basis set group =>   3
Atom  10H    basis set group =>   3
Atom  11H    basis set group =>   3
--------------------------------------------------------------------------
By default, for Open MPI 4.0 and later, infiniband ports on a device
are not used by default.  The intent is to use UCX for these devices.
You can override this policy by setting the btl_openib_allow_ib MCA parameter
to true.

  Local host:              psid01
  Local adapter:           mlx5_0
  Local port:              1

--------------------------------------------------------------------------
--------------------------------------------------------------------------
WARNING: There was an error initializing an OpenFabrics device.

  Local host:   psid01
  Local device: mlx5_0
--------------------------------------------------------------------------


           ************************************************************
           *        Program running with 20 parallel MPI-processes    *
           *              working on a common directory               *
           ************************************************************
------------------------------------------------------------------------------
                             ORCA STARTUP CALCULATIONS
                           -- RI-GTO INTEGRALS CHOSEN --
------------------------------------------------------------------------------
------------------------------------------------------------------------------
                   ___                                                        
                  /   \      - P O W E R E D   B Y -                         
                 /     \                                                     
                 |  |  |   _    _      __       _____    __    __             
                 |  |  |  | |  | |    /  \     |  _  \  |  |  /  |          
                  \  \/   | |  | |   /    \    | | | |  |  | /  /          
                 / \  \   | |__| |  /  /\  \   | |_| |  |  |/  /          
                |  |  |   |  __  | /  /__\  \  |    /   |      \           
                |  |  |   | |  | | |   __   |  |    \   |  |\   \          
                \     /   | |  | | |  |  |  |  | |\  \  |  | \   \       
                 \___/    |_|  |_| |__|  |__|  |_| \__\ |__|  \__/        
                                                                              
                      - O R C A' S   B I G   F R I E N D -                    
                                      &                                       
                       - I N T E G R A L  F E E D E R -                       
                                                                              
 v1 FN, 2020, v2 2021, v3 2022-2024                                           
------------------------------------------------------------------------------


----------------------
SHARK INTEGRAL PACKAGE
----------------------

Number of atoms                             ...     12
Number of basis functions                   ...    222
Number of shells                            ...     90
Maximum angular momentum                    ...      3
Integral batch strategy                     ... SHARK/LIBINT Hybrid
RI-J (if used) integral strategy            ... SPLIT-RIJ (Revised 2003 algorithm where possible)
Printlevel                                  ...      1
Contraction scheme used                     ... SEGMENTED contraction
Prescreening option                         ... SCHWARTZ
   Thresh                                   ... 2.500e-11
   Tcut                                     ... 2.500e-12
   Tpresel                                  ... 2.500e-12 
Coulomb Range Separation                    ... NOT USED
Exchange Range Separation                   ... NOT USED
Multipole approximations                    ... NOT USED
Finite Nucleus Model                        ... NOT USED
CABS basis                                  ... NOT available
Auxiliary Coulomb fitting basis             ... AVAILABLE
   # of basis functions in Aux-J            ...    360
   # of shells in Aux-J                     ...    120
   Maximum angular momentum in Aux-J        ...      4
Auxiliary J/K fitting basis                 ... NOT available
Auxiliary Correlation fitting basis         ... NOT available
Auxiliary 'external' fitting basis          ... NOT available

Checking pre-screening integrals            ... done (  0.0 sec) Dimension = 90
Check shell pair data                       ... done (  0.0 sec)
Shell pair information
Shell pair cut-off parameter TPreSel        ...   2.5e-12
Total number of shell pairs                 ...      4095
Shell pairs after pre-screening             ...      3768
Total number of primitive shell pairs       ...     12396
Primitive shell pairs kept                  ...      8790
          la=0 lb=0:   1038 shell pairs
          la=1 lb=0:   1066 shell pairs
          la=1 lb=1:    282 shell pairs
          la=2 lb=0:    540 shell pairs
          la=2 lb=1:    274 shell pairs
          la=2 lb=2:     77 shell pairs
          la=3 lb=0:    262 shell pairs
          la=3 lb=1:    138 shell pairs
          la=3 lb=2:     70 shell pairs
          la=3 lb=3:     21 shell pairs

Calculating one electron integrals          ... done (  0.0 sec)
Calculating RI/J V-Matrix + Cholesky decomp.... done (  0.0 sec)
Calculating Nuclear repulsion               ... done (  0.0 sec) ENN=    251.906104949295 Eh

Diagonalization of the overlap matrix:
Smallest eigenvalue                        ... 8.850e-04
Time for diagonalization                   ...    0.004 sec
Threshold for overlap eigenvalues          ... 1.000e-07
Number of eigenvalues below threshold      ... 0
Time for construction of square roots      ...    0.003 sec
Total time needed                          ...    0.012 sec

-------------------
DFT GRID GENERATION
-------------------

General Integration Accuracy     IntAcc      ... 4.388
Radial Grid Type                 RadialGrid  ... OptM3 with GC (2021)
Angular Grid (max. ang.)         AngularGrid ... 4 (Lebedev-302)
Angular grid pruning method      GridPruning ... 4 (adaptive)
Weight generation scheme         WeightScheme... mBecke (2022)
Basis function cutoff            BFCut       ... 1.0000e-11
Integration weight cutoff        WCut        ... 1.0000e-14
Partially contracted basis set               ... off
Rotationally invariant grid construction     ... off
Angular grids for H and He will be reduced by one unit

Total number of grid points                  ...    55913
Total number of batches                      ...      879
Average number of points per batch           ...       63
Average number of grid points per atom       ...     4659

--------------------
COSX GRID GENERATION
--------------------

GRIDX 1
-------
General Integration Accuracy     IntAcc      ... 3.816
Radial Grid Type                 RadialGrid  ... OptM3 with GC (2021)
Angular Grid (max. ang.)         AngularGrid ... 1 (Lebedev-50)
Angular grid pruning method      GridPruning ... 4 (adaptive)
Weight generation scheme         WeightScheme... mBecke (2022)
Basis function cutoff            BFCut       ... 1.0000e-11
Integration weight cutoff        WCut        ... 1.0000e-14
Partially contracted basis set               ... on
Rotationally invariant grid construction     ... off
Angular grids for H and He will be reduced by one unit

Total number of grid points                  ...     7145
Total number of batches                      ...       63
Average number of points per batch           ...      113
Average number of grid points per atom       ...      595
UseSFitting                                  ... on

GRIDX 2
-------
General Integration Accuracy     IntAcc      ... 4.020
Radial Grid Type                 RadialGrid  ... OptM3 with GC (2021)
Angular Grid (max. ang.)         AngularGrid ... 2 (Lebedev-110)
Angular grid pruning method      GridPruning ... 4 (adaptive)
Weight generation scheme         WeightScheme... mBecke (2022)
Basis function cutoff            BFCut       ... 1.0000e-11
Integration weight cutoff        WCut        ... 1.0000e-14
Partially contracted basis set               ... on
Rotationally invariant grid construction     ... off
Angular grids for H and He will be reduced by one unit

Total number of grid points                  ...    15660
Total number of batches                      ...      129
Average number of points per batch           ...      121
Average number of grid points per atom       ...     1305
UseSFitting                                  ... on

GRIDX 3
-------
General Integration Accuracy     IntAcc      ... 4.338
Radial Grid Type                 RadialGrid  ... OptM3 with GC (2021)
Angular Grid (max. ang.)         AngularGrid ... 3 (Lebedev-194)
Angular grid pruning method      GridPruning ... 4 (adaptive)
Weight generation scheme         WeightScheme... mBecke (2022)
Basis function cutoff            BFCut       ... 1.0000e-11
Integration weight cutoff        WCut        ... 1.0000e-14
Partially contracted basis set               ... on
Rotationally invariant grid construction     ... off
Angular grids for H and He will be reduced by one unit

Total number of grid points                  ...    34553
Total number of batches                      ...      276
Average number of points per batch           ...      125
Average number of grid points per atom       ...     2879
UseSFitting                                  ... on
Initializing property integral containers    ... done (  0.0 sec)

SHARK setup successfully completed in   0.6 seconds

Maximum memory used throughout the entire STARTUP-calculation: 18.4 MB
[psid01:239793] 19 more processes have sent help message help-mpi-btl-openib.txt / ib port not selected
[psid01:239793] Set MCA parameter "orte_base_help_aggregate" to 0 to see all help / error messages
[psid01:239793] 19 more processes have sent help message help-mpi-btl-openib.txt / error in device init
--------------------------------------------------------------------------
By default, for Open MPI 4.0 and later, infiniband ports on a device
are not used by default.  The intent is to use UCX for these devices.
You can override this policy by setting the btl_openib_allow_ib MCA parameter
to true.

  Local host:              psid01
  Local adapter:           mlx5_0
  Local port:              1

--------------------------------------------------------------------------
--------------------------------------------------------------------------
WARNING: There was an error initializing an OpenFabrics device.

  Local host:   psid01
  Local device: mlx5_0
--------------------------------------------------------------------------


           ************************************************************
           *        Program running with 20 parallel MPI-processes    *
           *              working on a common directory               *
           ************************************************************
-------------------------------------------------------------------------------
                                 ORCA GUESS
                   Start orbitals & Density for SCF / CASSCF
-------------------------------------------------------------------------------

------------
SCF SETTINGS
------------
Hamiltonian:
 Density Functional     Method          .... DFT(GTOs)
 Exchange Functional    Exchange        .... B88
   X-Alpha parameter    XAlpha          ....  0.666667
   Becke's b parameter  XBeta           ....  0.004200
 Correlation Functional Correlation     .... LYP
 LDA part of GGA corr.  LDAOpt          .... VWN-5
 Gradients option       PostSCFGGA      .... off
 Hybrid DFT is turned on
   Fraction HF Exchange ScalHFX         ....  0.200000
   Scaling of DF-GGA-X  ScalDFX         ....  0.720000
   Scaling of DF-GGA-C  ScalDFC         ....  0.810000
   Scaling of DF-LDA-C  ScalLDAC        ....  1.000000
   Perturbative correction              ....  0.000000
   NL short-range parameter             ....  4.800000
 RI-approximation to the Coulomb term is turned on
   Number of AuxJ basis functions       .... 360
   RIJ-COSX (HFX calculated with COS-X)).... on


General Settings:
 Integral files         IntName         .... DMC
 Hartree-Fock type      HFTyp           .... RHF
 Total Charge           Charge          ....    0
 Multiplicity           Mult            ....    1
 Number of Electrons    NEL             ....   48
 Basis Dimension        Dim             ....  222
 Nuclear Repulsion      ENuc            ....    251.9061049493 Eh

Convergence Acceleration:
 AO-DIIS                CNVDIIS         .... on
   Start iteration      DIISMaxIt       ....    12
   Startup error        DIISStart       ....  0.200000
   # of expansion vecs  DIISMaxEq       ....     5
   Bias factor          DIISBfac        ....   1.050
   Max. coefficient     DIISMaxC        ....  10.000
 MO-DIIS                CNVKDIIS        .... off
 Trust-Rad. Augm. Hess. CNVTRAH         .... auto
   Auto Start mean grad. ratio tolernc. ....  1.125000
   Auto Start start iteration           ....    50
   Auto Start num. interpolation iter.  ....    10
   Max. Number of Micro iterations      ....    24
   Max. Number of Macro iterations      .... Maxiter - #DIIS iter
   Number of Davidson start vectors     ....     2
   Converg. threshold    (grad. norm)   ....   1.000e-05
   Grad. Scal. Fac. for Micro threshold ....   0.100
   Minimum threshold for Micro iter.    ....   1.000e-02
   NR start threshold (gradient norm)   ....   1.000e-04
   Initial trust radius                 ....   0.400
   Minimum AH scaling param. (alpha)    ....   1.000
   Maximum AH scaling param. (alpha)    .... 1000.000
   Quad. conv. algorithm                .... NR
   White noise on init. David. guess    .... on
   Maximum white noise                  ....   0.010
   Pseudo random numbers                .... off
   Inactive MOs                         .... canonical
   Orbital update algorithm             .... Taylor
   Preconditioner                       .... Diag
   Full preconditioner red. dimension   ....   250
 SOSCF                  CNVSOSCF        .... on
   Start iteration      SOSCFMaxIt      ....   150
   Startup grad/error   SOSCFStart      ....  0.003300
   Hessian update       SOSCFHessUp     .... L-BFGS
 Level Shifting         CNVShift        .... on
   Level shift para.    LevelShift      ....    0.2500
   Turn off err/grad.   ShiftErr        ....    0.0010
 Zerner damping         CNVZerner       .... off
 Static damping         CNVDamp         .... on
   Fraction old density DampFac         ....    0.7000
   Max. Damping (<1)    DampMax         ....    0.9800
   Min. Damping (>=0)   DampMin         ....    0.0000
   Turn off err/grad.   DampErr         ....    0.1000

SCF Procedure:
 Maximum # iterations   MaxIter         ....   125
 SCF integral mode      SCFMode         .... Direct
   Integral package                     .... SHARK and LIBINT hybrid scheme
 Reset frequency        DirectResetFreq ....    20
 Integral Threshold     Thresh          ....  2.500e-11 Eh
 Primitive CutOff       TCut            ....  2.500e-12 Eh

Convergence Tolerance:
 Convergence Check Mode ConvCheckMode   .... Total+1el-Energy
 Convergence forced     ConvForced      .... 0
 Energy Change          TolE            ....  1.000e-08 Eh
 1-El. energy change                    ....  1.000e-05 Eh
 Orbital Gradient       TolG            ....  1.000e-05
 Orbital Rotation angle TolX            ....  1.000e-05
 DIIS Error             TolErr          ....  5.000e-07

------------------------------
INITIAL GUESS: MODEL POTENTIAL
------------------------------
Loading Hartree-Fock densities                     ... done
Calculating cut-offs                               ... done
Initializing the effective Hamiltonian             ... done
Setting up the integral package (SHARK)            ... done
Starting the Coulomb interaction                   ... done (   0.0 sec)
Making the grid                                    ... done (   0.1 sec)
Mapping shells                                     ... done
Starting the XC term evaluation                    ... done (   0.0 sec)
  promolecular density results
     # of electrons  =     47.996033964
     EX              =    -41.808176313
     EC              =     -1.657824235
     EX+EC           =    -43.466000548
Transforming the Hamiltonian                       ... done (   0.0 sec)
Diagonalizing the Hamiltonian                      ... done (   0.0 sec)
Back transforming the eigenvectors                 ... done (   0.0 sec)
Now organizing SCF variables                       ... done
                      ------------------
                      INITIAL GUESS DONE (   0.1 sec)
                      ------------------
             **** ENERGY FILE WAS UPDATED (DMC.en.tmp) ****
Finished Guess after   0.7 sec
Maximum memory used throughout the entire GUESS-calculation: 12.3 MB
[psid01:239867] 19 more processes have sent help message help-mpi-btl-openib.txt / ib port not selected
[psid01:239867] Set MCA parameter "orte_base_help_aggregate" to 0 to see all help / error messages
[psid01:239867] 19 more processes have sent help message help-mpi-btl-openib.txt / error in device init
--------------------------------------------------------------------------
By default, for Open MPI 4.0 and later, infiniband ports on a device
are not used by default.  The intent is to use UCX for these devices.
You can override this policy by setting the btl_openib_allow_ib MCA parameter
to true.

  Local host:              psid01
  Local adapter:           mlx5_0
  Local port:              1

--------------------------------------------------------------------------
--------------------------------------------------------------------------
WARNING: There was an error initializing an OpenFabrics device.

  Local host:   psid01
  Local device: mlx5_0
--------------------------------------------------------------------------


           ************************************************************
           *        Program running with 20 parallel MPI-processes    *
           *              working on a common directory               *
           ************************************************************

-------------------------------------------------------------------------------------------
                                      ORCA LEAN-SCF
                              memory conserving SCF solver
-------------------------------------------------------------------------------------------

----------------------------------------D-I-I-S--------------------------------------------
Iteration    Energy (Eh)           Delta-E    RMSDP     MaxDP     DIISErr   Damp  Time(sec)
-------------------------------------------------------------------------------------------
               ***  Starting incremental Fock matrix formation  ***
    1    -343.3654630271087171     0.00e+00  1.54e-03  6.16e-02  3.20e-01  0.700   0.4
    2    -343.4690384554413640    -1.04e-01  9.58e-04  3.40e-02  1.23e-01  0.700   0.3
                               ***Turning on AO-DIIS***
    3    -343.5043726805116648    -3.53e-02  3.67e-04  6.76e-03  3.17e-02  0.700   0.3
    4    -343.5273452779911167    -2.30e-02  5.33e-04  1.18e-02  1.38e-02  0.000   0.3
    5    -343.5794594131344866    -5.21e-02  1.57e-04  2.94e-03  5.65e-03  0.000   0.3
                              *** Initializing SOSCF ***
---------------------------------------S-O-S-C-F--------------------------------------
Iteration    Energy (Eh)           Delta-E    RMSDP     MaxDP     MaxGrad    Time(sec)
--------------------------------------------------------------------------------------
    6    -343.5796561776764975    -1.97e-04  5.65e-05  9.64e-04  2.01e-03     0.3
               *** Restarting incremental Fock matrix formation ***
    7    -343.5796790635897651    -2.29e-05  4.63e-05  1.31e-03  6.49e-04     0.4
    8    -343.5796666025712511     1.25e-05  2.37e-05  9.41e-04  1.54e-03     0.4
    9    -343.5796837069977983    -1.71e-05  4.05e-06  1.62e-04  7.94e-05     0.4
   10    -343.5796835925463029     1.14e-07  2.40e-06  8.40e-05  1.22e-04     0.3
   11    -343.5796837911592547    -1.99e-07  4.58e-07  9.63e-06  4.81e-06     0.3
   12    -343.5796837890360393     2.12e-09  2.21e-07  4.90e-06  4.51e-06     0.3
                 **** Energy Check signals convergence ****

               *****************************************************
               *                     SUCCESS                       *
               *           SCF CONVERGED AFTER  12 CYCLES          *
               *****************************************************

Recomputing exchange energy using gridx3       ... done (    0.428 sec)
Old exchange energy                            :     -8.477479418 Eh
New exchange energy                            :     -8.477459947 Eh
Exchange energy change after final integration :      0.000019471 Eh
Total energy after final integration           :   -343.579664318 Eh
             **** ENERGY FILE WAS UPDATED (DMC.en.tmp) ****

----------------
TOTAL SCF ENERGY
----------------

Total Energy       :       -343.57966431792073 Eh           -9349.27797 eV

Components:
Nuclear Repulsion  :        251.90610494929501 Eh            6854.71360 eV
Electronic Energy  :       -595.48578873833117 Eh          -16203.99211 eV
One Electron Energy:       -968.34233885564174 Eh          -26349.93465 eV
Two Electron Energy:        372.85655011731063 Eh           10145.94254 eV

Virial components:
Potential Energy   :       -685.77033694319971 Eh          -18660.75956 eV
Kinetic Energy     :        342.19067262527898 Eh            9311.48159 eV
Virial Ratio       :          2.00405911617048

DFT components:
N(Alpha)           :       24.000019721227 electrons
N(Beta)            :       24.000019721227 electrons
N(Total)           :       48.000039442455 electrons
E(X)               :      -33.744540267882 Eh       
E(C)               :       -1.955931667161 Eh       
E(XC)              :      -35.700471935043 Eh       

---------------
SCF CONVERGENCE
---------------

  Last Energy change         ...   -2.1232e-09  Tolerance :   1.0000e-08
  Last MAX-Density change    ...    4.8976e-06  Tolerance :   1.0000e-07
  Last RMS-Density change    ...    2.2144e-07  Tolerance :   5.0000e-09
  Last DIIS Error            ...    2.0149e-03  Tolerance :   5.0000e-07
  Last Orbital Gradient      ...    4.5148e-06  Tolerance :   1.0000e-05
  Last Orbital Rotation      ...    3.7034e-06  Tolerance :   1.0000e-05


----------------
ORBITAL ENERGIES
----------------

  NO   OCC          E(Eh)            E(eV) 
   0   2.0000     -19.176065      -521.8073 
   1   2.0000     -19.176055      -521.8070 
   2   2.0000     -19.111454      -520.0491 
   3   2.0000     -10.340937      -281.3912 
   4   2.0000     -10.228363      -278.3279 
   5   2.0000     -10.228362      -278.3279 
   6   2.0000      -1.145516       -31.1711 
   7   2.0000      -1.059240       -28.8234 
   8   2.0000      -1.022866       -27.8336 
   9   2.0000      -0.760938       -20.7062 
  10   2.0000      -0.699553       -19.0358 
  11   2.0000      -0.582680       -15.8555 
  12   2.0000      -0.549594       -14.9552 
  13   2.0000      -0.512027       -13.9330 
  14   2.0000      -0.494377       -13.4527 
  15   2.0000      -0.463553       -12.6139 
  16   2.0000      -0.449223       -12.2240 
  17   2.0000      -0.438271       -11.9260 
  18   2.0000      -0.404997       -11.0205 
  19   2.0000      -0.382575       -10.4104 
  20   2.0000      -0.364508        -9.9188 
  21   2.0000      -0.315498        -8.5851 
  22   2.0000      -0.312114        -8.4931 
  23   2.0000      -0.295098        -8.0300 
  24   0.0000       0.034269         0.9325 
  25   0.0000       0.039784         1.0826 
  26   0.0000       0.060873         1.6564 
  27   0.0000       0.061705         1.6791 
  28   0.0000       0.099634         2.7112 
  29   0.0000       0.101665         2.7664 
  30   0.0000       0.114379         3.1124 
  31   0.0000       0.120441         3.2774 
  32   0.0000       0.124572         3.3898 
  33   0.0000       0.185194         5.0394 
  34   0.0000       0.190347         5.1796 
*Only the first 10 virtual orbitals were printed.

                    ********************************
                    * MULLIKEN POPULATION ANALYSIS *
                    ********************************

-----------------------
MULLIKEN ATOMIC CHARGES
-----------------------
   0 O :   -0.264239
   1 O :   -0.264236
   2 O :   -0.361071
   3 C :    0.444221
   4 C :   -0.154811
   5 C :   -0.154814
   6 H :    0.125294
   7 H :    0.126885
   8 H :    0.125296
   9 H :    0.126885
  10 H :    0.125293
  11 H :    0.125296
Sum of atomic charges:    0.0000000

--------------------------------
MULLIKEN REDUCED ORBITAL CHARGES
--------------------------------
  0 O s       :     3.767546  s :     3.767546
      pz      :     1.726362  p :     4.454250
      px      :     1.169508
      py      :     1.558381
      dz2     :     0.004747  d :     0.040302
      dxz     :     0.006106
      dyz     :     0.004564
      dx2y2   :     0.007929
      dxy     :     0.016957
      f0      :     0.000287  f :     0.002141
      f+1     :     0.000398
      f-1     :     0.000179
      f+2     :     0.000076
      f-2     :     0.000270
      f+3     :     0.000437
      f-3     :     0.000495

  1 O s       :     3.767546  s :     3.767546
      pz      :     1.726362  p :     4.454246
      px      :     1.169505
      py      :     1.558379
      dz2     :     0.004747  d :     0.040302
      dxz     :     0.006106
      dyz     :     0.004564
      dx2y2   :     0.007929
      dxy     :     0.016957
      f0      :     0.000287  f :     0.002141
      f+1     :     0.000398
      f-1     :     0.000179
      f+2     :     0.000076
      f-2     :     0.000270
      f+3     :     0.000437
      f-3     :     0.000495

  2 O s       :     3.813401  s :     3.813401
      pz      :     1.461299  p :     4.516264
      px      :     1.754318
      py      :     1.300646
      dz2     :     0.002581  d :     0.029567
      dxz     :     0.000123
      dyz     :     0.010894
      dx2y2   :     0.008143
      dxy     :     0.007827
      f0      :     0.000211  f :     0.001840
      f+1     :     0.000028
      f-1     :     0.000179
      f+2     :     0.000453
      f-2     :     0.000017
      f+3     :     0.000553
      f-3     :     0.000400

  3 C s       :     2.977610  s :     2.977610
      pz      :     0.801933  p :     2.234250
      px      :     0.682809
      py      :     0.749507
      dz2     :     0.009932  d :     0.311329
      dxz     :     0.049018
      dyz     :     0.077130
      dx2y2   :     0.065911
      dxy     :     0.109339
      f0      :     0.003610  f :     0.032590
      f+1     :     0.001413
      f-1     :     0.001842
      f+2     :     0.003038
      f-2     :     0.004664
      f+3     :     0.012842
      f-3     :     0.005180

  4 C s       :     3.254575  s :     3.254575
      pz      :     1.084648  p :     2.813064
      px      :     0.752594
      py      :     0.975821
      dz2     :     0.005888  d :     0.079613
      dxz     :     0.021305
      dyz     :     0.016014
      dx2y2   :     0.014655
      dxy     :     0.021751
      f0      :     0.000920  f :     0.007559
      f+1     :     0.000441
      f-1     :     0.001445
      f+2     :     0.000574
      f-2     :     0.000896
      f+3     :     0.001870
      f-3     :     0.001413

  5 C s       :     3.254581  s :     3.254581
      pz      :     1.084648  p :     2.813061
      px      :     0.752584
      py      :     0.975829
      dz2     :     0.005888  d :     0.079613
      dxz     :     0.021305
      dyz     :     0.016013
      dx2y2   :     0.014655
      dxy     :     0.021752
      f0      :     0.000920  f :     0.007559
      f+1     :     0.000441
      f-1     :     0.001445
      f+2     :     0.000574
      f-2     :     0.000896
      f+3     :     0.001870
      f-3     :     0.001413

  6 H s       :     0.854196  s :     0.854196
      pz      :     0.010105  p :     0.020510
      px      :     0.003150
      py      :     0.007255

  7 H s       :     0.852524  s :     0.852524
      pz      :     0.004392  p :     0.020591
      px      :     0.007949
      py      :     0.008249

  8 H s       :     0.854194  s :     0.854194
      pz      :     0.010107  p :     0.020510
      px      :     0.003150
      py      :     0.007254

  9 H s       :     0.852524  s :     0.852524
      pz      :     0.004392  p :     0.020590
      px      :     0.007949
      py      :     0.008250

 10 H s       :     0.854196  s :     0.854196
      pz      :     0.010105  p :     0.020510
      px      :     0.003150
      py      :     0.007255

 11 H s       :     0.854194  s :     0.854194
      pz      :     0.010107  p :     0.020510
      px      :     0.003150
      py      :     0.007254



                     *******************************
                     * LOEWDIN POPULATION ANALYSIS *
                     *******************************

----------------------
LOEWDIN ATOMIC CHARGES
----------------------
   0 O :    0.239541
   1 O :    0.239541
   2 O :    0.081194
   3 C :   -0.642881
   4 C :   -0.293517
   5 C :   -0.293518
   6 H :    0.111118
   7 H :    0.112583
   8 H :    0.111118
   9 H :    0.112583
  10 H :    0.111118
  11 H :    0.111118

-------------------------------
LOEWDIN REDUCED ORBITAL CHARGES
-------------------------------
  0 O s       :     3.258168  s :     3.258168
      pz      :     1.591976  p :     4.387957
      px      :     1.248684
      py      :     1.547296
      dz2     :     0.011307  d :     0.107374
      dxz     :     0.018238
      dyz     :     0.007369
      dx2y2   :     0.026704
      dxy     :     0.043756
      f0      :     0.000636  f :     0.006959
      f+1     :     0.000928
      f-1     :     0.000328
      f+2     :     0.000177
      f-2     :     0.001049
      f+3     :     0.002249
      f-3     :     0.001593

  1 O s       :     3.258168  s :     3.258168
      pz      :     1.591977  p :     4.387957
      px      :     1.248685
      py      :     1.547296
      dz2     :     0.011307  d :     0.107374
      dxz     :     0.018238
      dyz     :     0.007369
      dx2y2   :     0.026704
      dxy     :     0.043756
      f0      :     0.000636  f :     0.006959
      f+1     :     0.000928
      f-1     :     0.000328
      f+2     :     0.000177
      f-2     :     0.001049
      f+3     :     0.002249
      f-3     :     0.001593

  2 O s       :     3.399403  s :     3.399403
      pz      :     1.369235  p :     4.445548
      px      :     1.595701
      py      :     1.480612
      dz2     :     0.008626  d :     0.067339
      dxz     :     0.000146
      dyz     :     0.015822
      dx2y2   :     0.026988
      dxy     :     0.015757
      f0      :     0.000518  f :     0.006515
      f+1     :     0.000099
      f-1     :     0.001063
      f+2     :     0.000965
      f-2     :     0.000073
      f+3     :     0.001759
      f-3     :     0.002037

  3 C s       :     2.729277  s :     2.729277
      pz      :     0.781154  p :     2.618629
      px      :     0.849910
      py      :     0.987565
      dz2     :     0.076792  d :     1.096394
      dxz     :     0.130204
      dyz     :     0.212439
      dx2y2   :     0.263951
      dxy     :     0.413008
      f0      :     0.011023  f :     0.198582
      f+1     :     0.010569
      f-1     :     0.014061
      f+2     :     0.022567
      f-2     :     0.027628
      f+3     :     0.080332
      f-3     :     0.032402

  4 C s       :     2.865696  s :     2.865696
      pz      :     1.116875  p :     3.012784
      px      :     0.847504
      py      :     1.048405
      dz2     :     0.047848  d :     0.362130
      dxz     :     0.059189
      dyz     :     0.077433
      dx2y2   :     0.059026
      dxy     :     0.118634
      f0      :     0.005413  f :     0.052906
      f+1     :     0.006577
      f-1     :     0.004722
      f+2     :     0.006568
      f-2     :     0.005166
      f+3     :     0.012983
      f-3     :     0.011478

  5 C s       :     2.865697  s :     2.865697
      pz      :     1.116875  p :     3.012784
      px      :     0.847498
      py      :     1.048411
      dz2     :     0.047848  d :     0.362130
      dxz     :     0.059191
      dyz     :     0.077430
      dx2y2   :     0.059026
      dxy     :     0.118635
      f0      :     0.005413  f :     0.052907
      f+1     :     0.006577
      f-1     :     0.004722
      f+2     :     0.006568
      f-2     :     0.005165
      f+3     :     0.012983
      f-3     :     0.011478

  6 H s       :     0.827053  s :     0.827053
      pz      :     0.030755  p :     0.061829
      px      :     0.009402
      py      :     0.021671

  7 H s       :     0.826891  s :     0.826891
      pz      :     0.013749  p :     0.060526
      px      :     0.021481
      py      :     0.025296

  8 H s       :     0.827052  s :     0.827052
      pz      :     0.030760  p :     0.061829
      px      :     0.009402
      py      :     0.021668

  9 H s       :     0.826891  s :     0.826891
      pz      :     0.013749  p :     0.060526
      px      :     0.021480
      py      :     0.025297

 10 H s       :     0.827053  s :     0.827053
      pz      :     0.030755  p :     0.061829
      px      :     0.009402
      py      :     0.021671

 11 H s       :     0.827053  s :     0.827053
      pz      :     0.030760  p :     0.061829
      px      :     0.009402
      py      :     0.021667



                      *****************************
                      * MAYER POPULATION ANALYSIS *
                      *****************************

  NA   - Mulliken gross atomic population
  ZA   - Total nuclear charge
  QA   - Mulliken gross atomic charge
  VA   - Mayer's total valence
  BVA  - Mayer's bonded valence
  FA   - Mayer's free valence

  ATOM       NA         ZA         QA         VA         BVA        FA
  0 O      8.2642     8.0000    -0.2642     2.1051     2.1051     0.0000
  1 O      8.2642     8.0000    -0.2642     2.1051     2.1051    -0.0000
  2 O      8.3611     8.0000    -0.3611     2.1235     2.1235     0.0000
  3 C      5.5558     6.0000     0.4442     4.4034     4.4034     0.0000
  4 C      6.1548     6.0000    -0.1548     3.8543     3.8543     0.0000
  5 C      6.1548     6.0000    -0.1548     3.8543     3.8543     0.0000
  6 H      0.8747     1.0000     0.1253     0.9682     0.9682    -0.0000
  7 H      0.8731     1.0000     0.1269     0.9611     0.9611     0.0000
  8 H      0.8747     1.0000     0.1253     0.9682     0.9682     0.0000
  9 H      0.8731     1.0000     0.1269     0.9611     0.9611     0.0000
 10 H      0.8747     1.0000     0.1253     0.9682     0.9682     0.0000
 11 H      0.8747     1.0000     0.1253     0.9682     0.9682    -0.0000

  Mayer bond orders larger than 0.100000
B(  0-O ,  3-C ) :   1.2073 B(  0-O ,  4-C ) :   0.8936 B(  1-O ,  3-C ) :   1.2073 
B(  1-O ,  5-C ) :   0.8936 B(  2-O ,  3-C ) :   1.9547 B(  4-C ,  6-H ) :   0.9741 
B(  4-C ,  7-H ) :   0.9657 B(  4-C ,  8-H ) :   0.9741 B(  5-C ,  9-H ) :   0.9657 
B(  5-C , 10-H ) :   0.9741 B(  5-C , 11-H ) :   0.9741 

-------
TIMINGS
-------

Total SCF time: 0 days 0 hours 0 min 5 sec 

Total time                  ....       5.305 sec
Sum of individual times     ....       5.209 sec  ( 98.2%)

SCF preparation             ....       0.625 sec  ( 11.8%)
Fock matrix formation       ....       4.025 sec  ( 75.9%)
  Startup                   ....       0.057 sec  (  1.4% of F)
  Split-RI-J                ....       0.318 sec  (  7.9% of F)
  Chain of spheres X        ....       2.506 sec  ( 62.3% of F)
  XC integration            ....       0.991 sec  ( 24.6% of F)
    XC Preparation          ....       0.000 sec  (  0.0% of XC)
    Basis function eval.    ....       0.143 sec  ( 14.4% of XC)
    Density eval.           ....       0.087 sec  (  8.8% of XC)
    XC-Functional eval.     ....       0.032 sec  (  3.2% of XC)
    XC-Potential eval.      ....       0.187 sec  ( 18.8% of XC)
Diagonalization             ....       0.000 sec  (  0.0%)
Density matrix formation    ....       0.145 sec  (  2.7%)
Total Energy calculation    ....       0.049 sec  (  0.9%)
Population analysis         ....       0.022 sec  (  0.4%)
Orbital Transformation      ....       0.033 sec  (  0.6%)
Orbital Orthonormalization  ....       0.000 sec  (  0.0%)
DIIS solution               ....       0.199 sec  (  3.8%)
SOSCF solution              ....       0.110 sec  (  2.1%)
Finished LeanSCF after   5.3 sec

Maximum memory used throughout the entire LEANSCF-calculation: 19.4 MB
[psid01:239936] 19 more processes have sent help message help-mpi-btl-openib.txt / ib port not selected
[psid01:239936] Set MCA parameter "orte_base_help_aggregate" to 0 to see all help / error messages
[psid01:239936] 19 more processes have sent help message help-mpi-btl-openib.txt / error in device init

-------------------------   --------------------
FINAL SINGLE POINT ENERGY      -343.579664317921
-------------------------   --------------------

--------------------------------------------------------------------------
By default, for Open MPI 4.0 and later, infiniband ports on a device
are not used by default.  The intent is to use UCX for these devices.
You can override this policy by setting the btl_openib_allow_ib MCA parameter
to true.

  Local host:              psid01
  Local adapter:           mlx5_0
  Local port:              1

--------------------------------------------------------------------------
--------------------------------------------------------------------------
WARNING: There was an error initializing an OpenFabrics device.

  Local host:   psid01
  Local device: mlx5_0
--------------------------------------------------------------------------


           ************************************************************
           *        Program running with 20 parallel MPI-processes    *
           *              working on a common directory               *
           ************************************************************

------------------------------------------------------------------------------
                              ORCA PROPERTY CALCULATIONS
------------------------------------------------------------------------------

GBWName                                 ... DMC.gbw
Number of atoms                         ...     12
Number of basis functions               ...    222
Max core memory                         ...   5000 MB

Electric properties:
Dipole moment                           ... YES
Quadrupole moment                       ...  NO
Static polarizability (Dipole/Dipole)   ...  NO
Static polarizability (Dipole/Quad.)    ...  NO
Static polarizability (Quad./Quad.)     ...  NO
Static polarizability (Velocity)        ...  NO

Atomic electric properties:
Dipole moment                           ...  NO
Quadrupole moment                       ...  NO
Static polarizability                   ...  NO

Choice of electric origin               ... Center of mass
Position of electric origin             ...    -0.000002     0.000513    -0.000723

General magnetic properties:
Magnetizability                         ...  NO

EPR properties:
g-Tensor (aka g-matrix)                 ...  NO
Zero-Field splitting spin-orbit         ...  NO
Zero-field splitting spin-spin          ...  NO
Hyperfine couplings                     ...  NO (   0 nuclei)
Quadrupole couplings                    ...  NO (   0 nuclei)
Contact density                         ...  NO (   0 nuclei)

NMR properties:
Chemical shifts                         ...  NO (   0 nuclei)
Spin-rotation constants                 ...  NO (   0 nuclei)
Spin-spin couplings                     ...  NO (   0 nuclei,    0 pairs)

Choice of magnetic origin               ... GIAO
Position of magnetic origin             ...     0.000000     0.000000     0.000000

Properties with geometric perturbations:
SCF Hessian                             ...  NO
IR spectrum                             ...  NO
VCD spectrum                            ...  NO
X-ray spectroscopy properties:
SCF XES/XAS/RIXS spectra                ...  NO


-------------
DIPOLE MOMENT
-------------

Method             : SCF
Type of density    : Electron Density
Multiplicity       :   1
Irrep              :   0
Energy             :  -343.5796643179207308 Eh
Relativity type    : 
Basis              : AO
                                X                 Y                 Z
Electronic contribution:     -0.000017418      -1.007520269       0.000112824
Nuclear contribution   :      0.000015364       0.832263537      -0.000103805
                        -----------------------------------------
Total Dipole Moment    :     -0.000002054      -0.175256733       0.000009019
                        -----------------------------------------
Magnitude (a.u.)       :      0.175256733
Magnitude (Debye)      :      0.445467214



--------------------
Rotational spectrum 
--------------------
 
Rotational constants in cm-1:             0.348458             0.078286             0.065505 
Rotational constants in MHz :         10446.493269          2346.943011          1963.803579 

Dipole components along the rotational axes: 
x,y,z [a.u.] :    -0.000000    -0.175257    -0.000012 
x,y,z [Debye]:    -0.000000    -0.445467    -0.000031 

 

Dipole moment calculation done in   0.0 sec 

Maximum memory used throughout the entire PROP-calculation: 9.8 MB
[psid01:240010] 19 more processes have sent help message help-mpi-btl-openib.txt / ib port not selected
[psid01:240010] Set MCA parameter "orte_base_help_aggregate" to 0 to see all help / error messages
[psid01:240010] 19 more processes have sent help message help-mpi-btl-openib.txt / error in device init
--------------------------------------------------------------------------
By default, for Open MPI 4.0 and later, infiniband ports on a device
are not used by default.  The intent is to use UCX for these devices.
You can override this policy by setting the btl_openib_allow_ib MCA parameter
to true.

  Local host:              psid01
  Local adapter:           mlx5_0
  Local port:              1

--------------------------------------------------------------------------
--------------------------------------------------------------------------
WARNING: There was an error initializing an OpenFabrics device.

  Local host:   psid01
  Local device: mlx5_0
--------------------------------------------------------------------------
[psid01:240077] 19 more processes have sent help message help-mpi-btl-openib.txt / ib port not selected
[psid01:240077] Set MCA parameter "orte_base_help_aggregate" to 0 to see all help / error messages
[psid01:240077] 19 more processes have sent help message help-mpi-btl-openib.txt / error in device init

--------------------------------
SUGGESTED CITATIONS FOR THIS RUN
--------------------------------

Below you find a list of papers that are relevant to this ORCA run
We neither can nor want to force you to cite these papers, but we appreciate if you do
You receive ORCA, which is the product of decades of hard work by many enthusiastic individuals, for free
The only thing we kindly ask in return is that you cite our papers,
We deeply appreciate it, if you show your appreciation for ORCA by not just citing the generic ORCA reference.

Please note that relegating all ORCA citations to the supporting information does *not* help us.
SI sections are not indexed - citations you put there will not count into any citation statistics
But we need these citations in order to attract the funding resources that allow us to do what we are doing

Therefore, if you are a happy ORCA user, please consider citing a few of the papers listed below in the main body of your paper

In addition to the list printed below, the program has created the file DMC.bibtex that contains the list in bibtex format
You can import this file easily into all common literature databanks and citation aid programs


List of essential papers. We consider these as the minimum necessary citations

  1. Neese,F.
     Software update: the ORCA program system, version 5.0
     WIRES Comput. Molec. Sci., 2022 12(1)e1606
     doi.org/10.1002/wcms.1606

List of papers to cite with high priority. The work reported in these papers was absolutely
necessary for this run to complete.
Our perspective: the developers of density functionals and basis sets usually get cited in chemistry papers
Good! But without the algorithms to do something with them, the functionals or basis sets would not do anything.
Hence, in our opinion, the algorithm design and method developments papers are equally worthy of getting cited

  1. Neese,F.
     An improvement of the resolution of the identity approximation for the formation of the Coulomb matrix
     J. Comp. Chem., 2003 24(14)1740-1747
     doi.org/10.1002/jcc.10318
  2. Neese,F.; Wennmohs,F.; Hansen,A.; Becker,U.
     Efficient, approximate and parallel Hartree-Fock and hybrid DFT calculations. A 'chain-of-spheres' algorithm for the Hartree-Fock exchange
     Chem. Phys., 2009 356(1-3)98-109
     doi.org/10.1016/j.chemphys.2008.10.036
  3. Helmich-Paris,B.; de Souza,B.; Neese,F.; Izsák,R.
     An improved chain of spheres for exchange algorithm
     J. Chem. Phys., 2021 155 104109
     doi.org/doi: 10.1063/5.0058766.
  4. Neese,F.
     The SHARK Integral Generation and Digestion System
     J. Comp. Chem., 2022  1-16
     doi.org/10.1002/jcc.26942

List of suggested additional citations. These are papers that are important in the 'surrounding' of 
of this run, or papers that preceded the highly important papers. If you like your results we are grateful for a citation.

  1. Izsak,R.; Neese,F.
     An overlap fitted chain of spheres exchange method
     J. Chem. Phys., 2011 135 144105
     doi.org/10.1063/1.3646921
  2. Izsak,R.; Hansen,A.; Neese,F.
     The resolution of identity and chain of spheres approximations for the LPNO-CCSD singles Fock term
     Molec. Phys., 2012 110 2413-2417
     doi.org/10.1080/00268976.2012.687466
  3. Neese,F.
     The ORCA program system
     WIRES Comput. Molec. Sci., 2012 2(1)73-78
     doi.org/10.1002/wcms.81
  4. Izsak,R.; Neese,F.; Klopper,W.
     Robust fitting techniques in the chain of spheres approximation to the Fock exchange: The role of the complementary space
     J. Chem. Phys., 2013 139 
     doi.org/10.1063/1.4819264
  5. Neese,F.
     Software update: the ORCA program system, version 4.0
     WIRES Comput. Molec. Sci., 2018 8(1)1-6
     doi.org/10.1002/wcms.1327
  6. Neese,F.; Wennmohs,F.; Becker,U.; Riplinger,C.
     The ORCA quantum chemistry program package
     J. Chem. Phys., 2020 152 Art. No. L224108
     doi.org/10.1063/5.0004608

List of optional additional citations

  1. Neese,F.
     Approximate second-order SCF convergence for spin unrestricted wavefunctions
     Chem. Phys. Lett., 2000 325(1-3)93-98
     doi.org/10.1016/s0009-2614(00)00662-x

Timings for individual modules:

Sum of individual times          ...        8.194 sec (=   0.137 min)
Startup calculation              ...        1.258 sec (=   0.021 min)  15.3 %
SCF iterations                   ...        6.272 sec (=   0.105 min)  76.5 %
Property calculations            ...        0.664 sec (=   0.011 min)   8.1 %
                             ****ORCA TERMINATED NORMALLY****
TOTAL RUN TIME: 0 days 0 hours 0 minutes 8 seconds 996 msec
