[Molden Format]
[Title]
 Molden file created by orca_2mkl for BaseName=DMC

[Atoms] AU
O    1   8         -2.0438981974        -1.3218483769        -0.0005552951 
O    2   8          2.0438655969        -1.3218900949        -0.0005645625 
O    3   8          0.0000210782         2.4397435713        -0.0010137616 
C    4   6         -0.0000017161         0.1629265531        -0.0007567455 
C    5   6         -4.4214937952        -0.0142365609        -0.0007148468 
C    6   6          4.4214909045        -0.0143335698        -0.0007279669 
H    7   1         -4.5990149894         1.1645978634         1.6781977043 
H    8   1         -5.8520143425        -1.4874207686        -0.0006406395 
H    9   1         -4.5989259257         1.1643436235        -1.6798133484 
H   10   1          5.8519758968        -1.4875533250        -0.0006454796 
H   11   1          4.5990387489         1.1645016834         1.6781817940 
H   12   1          4.5989567409         1.1642396293        -1.6798285653 
[GTO]
  1 0
s   6 1.0 
    27032.3826310000         0.8598581479
     4052.3871392000         1.6055305368
      922.3272271000         2.7458778516
      261.2407098900         4.2987674426
       85.3546413510         5.8797663284
       31.0350352450         6.3163983216
s   2 1.0 
       12.2608607280         2.9812147522
        4.9987076005         0.9419559635
s   1 1.0 
        1.1703108158         0.8019291610
s   1 1.0 
        0.4647474099         0.4011648062
s   1 1.0 
        0.1850453636         0.2010799406
p   4 1.0 
       63.2749548010         3.0572017144
       14.6270493790         3.3844839414
        4.4501223456         2.9474262132
        1.5275799647         1.7118271494
p   1 1.0 
        0.5293511794         0.6436057926
p   1 1.0 
        0.1747842127         0.1610897254
d   1 1.0 
        2.3140000000        12.3767310624
d   1 1.0 
        0.6450000000         1.3234257612
f   1 1.0 
        1.4280000000        12.7097950062

  2 0
s   6 1.0 
    27032.3826310000         0.8598581479
     4052.3871392000         1.6055305368
      922.3272271000         2.7458778516
      261.2407098900         4.2987674426
       85.3546413510         5.8797663284
       31.0350352450         6.3163983216
s   2 1.0 
       12.2608607280         2.9812147522
        4.9987076005         0.9419559635
s   1 1.0 
        1.1703108158         0.8019291610
s   1 1.0 
        0.4647474099         0.4011648062
s   1 1.0 
        0.1850453636         0.2010799406
p   4 1.0 
       63.2749548010         3.0572017144
       14.6270493790         3.3844839414
        4.4501223456         2.9474262132
        1.5275799647         1.7118271494
p   1 1.0 
        0.5293511794         0.6436057926
p   1 1.0 
        0.1747842127         0.1610897254
d   1 1.0 
        2.3140000000        12.3767310624
d   1 1.0 
        0.6450000000         1.3234257612
f   1 1.0 
        1.4280000000        12.7097950062

  3 0
s   6 1.0 
    27032.3826310000         0.8598581479
     4052.3871392000         1.6055305368
      922.3272271000         2.7458778516
      261.2407098900         4.2987674426
       85.3546413510         5.8797663284
       31.0350352450         6.3163983216
s   2 1.0 
       12.2608607280         2.9812147522
        4.9987076005         0.9419559635
s   1 1.0 
        1.1703108158         0.8019291610
s   1 1.0 
        0.4647474099         0.4011648062
s   1 1.0 
        0.1850453636         0.2010799406
p   4 1.0 
       63.2749548010         3.0572017144
       14.6270493790         3.3844839414
        4.4501223456         2.9474262132
        1.5275799647         1.7118271494
p   1 1.0 
        0.5293511794         0.6436057926
p   1 1.0 
        0.1747842127         0.1610897254
d   1 1.0 
        2.3140000000        12.3767310624
d   1 1.0 
        0.6450000000         1.3234257612
f   1 1.0 
        1.4280000000        12.7097950062

  4 0
s   6 1.0 
    13575.3496820000         0.5435905310
     2035.2333680000         1.0145543947
      463.2256235900         1.7315731970
      131.2001959800         2.6910376290
       42.8530158910         3.6044547126
       15.5841857660         3.7025556986
s   2 1.0 
        6.2067138508         1.8383540830
        2.5764896527         0.5447575605
s   1 1.0 
        0.5769633942         0.4718145038
s   1 1.0 
        0.2297283136         0.2364944676
s   1 1.0 
        0.0951644400         0.1221141848
p   4 1.0 
       34.6972322440         1.3596651507
        7.9582622826         1.4512589486
        2.3780826883         1.2709231419
        0.8143320818         0.8025721189
p   1 1.0 
        0.2888754725         0.3018758868
p   1 1.0 
        0.1005682367         0.0807265016
d   1 1.0 
        1.0970000000         3.3522135855
d   1 1.0 
        0.3180000000         0.3838994974
f   1 1.0 
        0.7610000000         3.0840084332

  5 0
s   6 1.0 
    13575.3496820000         0.5435905310
     2035.2333680000         1.0145543947
      463.2256235900         1.7315731970
      131.2001959800         2.6910376290
       42.8530158910         3.6044547126
       15.5841857660         3.7025556986
s   2 1.0 
        6.2067138508         1.8383540830
        2.5764896527         0.5447575605
s   1 1.0 
        0.5769633942         0.4718145038
s   1 1.0 
        0.2297283136         0.2364944676
s   1 1.0 
        0.0951644400         0.1221141848
p   4 1.0 
       34.6972322440         1.3596651507
        7.9582622826         1.4512589486
        2.3780826883         1.2709231419
        0.8143320818         0.8025721189
p   1 1.0 
        0.2888754725         0.3018758868
p   1 1.0 
        0.1005682367         0.0807265016
d   1 1.0 
        1.0970000000         3.3522135855
d   1 1.0 
        0.3180000000         0.3838994974
f   1 1.0 
        0.7610000000         3.0840084332

  6 0
s   6 1.0 
    13575.3496820000         0.5435905310
     2035.2333680000         1.0145543947
      463.2256235900         1.7315731970
      131.2001959800         2.6910376290
       42.8530158910         3.6044547126
       15.5841857660         3.7025556986
s   2 1.0 
        6.2067138508         1.8383540830
        2.5764896527         0.5447575605
s   1 1.0 
        0.5769633942         0.4718145038
s   1 1.0 
        0.2297283136         0.2364944676
s   1 1.0 
        0.0951644400         0.1221141848
p   4 1.0 
       34.6972322440         1.3596651507
        7.9582622826         1.4512589486
        2.3780826883         1.2709231419
        0.8143320818         0.8025721189
p   1 1.0 
        0.2888754725         0.3018758868
p   1 1.0 
        0.1005682367         0.0807265016
d   1 1.0 
        1.0970000000         3.3522135855
d   1 1.0 
        0.3180000000         0.3838994974
f   1 1.0 
        0.7610000000         3.0840084332

  7 0
s   3 1.0 
       34.0613410000         0.2556299169
        5.1235746000         0.4613599649
        1.1646626000         0.6811214941
s   1 1.0 
        0.3272304100         0.3083545312
s   1 1.0 
        0.1030724100         0.1296483265
p   1 1.0 
        0.8000000000         1.0784563492

  8 0
s   3 1.0 
       34.0613410000         0.2556299169
        5.1235746000         0.4613599649
        1.1646626000         0.6811214941
s   1 1.0 
        0.3272304100         0.3083545312
s   1 1.0 
        0.1030724100         0.1296483265
p   1 1.0 
        0.8000000000         1.0784563492

  9 0
s   3 1.0 
       34.0613410000         0.2556299169
        5.1235746000         0.4613599649
        1.1646626000         0.6811214941
s   1 1.0 
        0.3272304100         0.3083545312
s   1 1.0 
        0.1030724100         0.1296483265
p   1 1.0 
        0.8000000000         1.0784563492

 10 0
s   3 1.0 
       34.0613410000         0.2556299169
        5.1235746000         0.4613599649
        1.1646626000         0.6811214941
s   1 1.0 
        0.3272304100         0.3083545312
s   1 1.0 
        0.1030724100         0.1296483265
p   1 1.0 
        0.8000000000         1.0784563492

 11 0
s   3 1.0 
       34.0613410000         0.2556299169
        5.1235746000         0.4613599649
        1.1646626000         0.6811214941
s   1 1.0 
        0.3272304100         0.3083545312
s   1 1.0 
        0.1030724100         0.1296483265
p   1 1.0 
        0.8000000000         1.0784563492

 12 0
s   3 1.0 
       34.0613410000         0.2556299169
        5.1235746000         0.4613599649
        1.1646626000         0.6811214941
s   1 1.0 
        0.3272304100         0.3083545312
s   1 1.0 
        0.1030724100         0.1296483265
p   1 1.0 
        0.8000000000         1.0784563492

[5D]
[7F]
[9G]
[MO]
 Sym=     1a
 Ene= -1.91760650394712E+01
 Spin= Alpha
 Occup= 2.000000
  1      -0.310187112532
  2      -0.455790631503
  3      -0.027080072473
  4       0.024487916486
  5      -0.004605065532
  6      -0.000048592236
  7      -0.001590458093
  8       0.000000209867
  9       0.000907447901
 10       0.004675917064
 11      -0.000000615763
 12      -0.001617994600
 13       0.000281357858
 14      -0.000000042786
 15       0.000161920896
 16       0.000000039674
 17       0.000000016954
 18      -0.000132473875
 19      -0.000034411391
 20      -0.001082314607
 21      -0.000000074699
 22      -0.000000150714
 23       0.000722826582
 24       0.000259988199
 25       0.000000033806
 26       0.000090767407
 27      -0.000113019384
 28      -0.000000022607
 29      -0.000000009221
 30       0.000134713024
 31      -0.000286172010
 32       0.305141303676
 33       0.448375845551
 34       0.026646921864
 35      -0.024138604903
 36       0.004529430143
 37      -0.000046605729
 38       0.001567444292
 39      -0.000000203918
 40       0.000897973560
 41      -0.004622462752
 42       0.000000597999
 43      -0.001616388241
 44      -0.000276019727
 45       0.000000057934
 46      -0.000158005869
 47       0.000000005261
 48      -0.000000020129
 49       0.000128622543
 50      -0.000034136384
 51       0.001061107125
 52      -0.000000038094
 53       0.000000150762
 54      -0.000702408460
 55       0.000259487012
 56      -0.000000034893
 57       0.000091195418
 58       0.000111132567
 59       0.000000020807
 60      -0.000000004027
 61       0.000135167575
 62       0.000282480485
 63       0.000000180954
 64       0.000000320840
 65       0.000002224213
 66      -0.000021278517
 67       0.000002668899
 68      -0.000104781345
 69       0.000000474224
 70       0.000000000325
 71       0.001076130162
 72       0.000008735097
 73      -0.000000003097
 74       0.001758619804
 75       0.000003942650
 76      -0.000000006488
 77       0.000000914248
 78      -0.000000021217
 79      -0.000000005435
 80       0.000000020941
 81       0.000078602116
 82      -0.000001808275
 83       0.000000075001
 84       0.000000006111
 85       0.000002282368
 86      -0.000700410762
 87       0.000000000305
 88       0.000027591439
 89       0.000000452360
 90       0.000000001109
 91      -0.000000002817
 92       0.000073004335
 93       0.000000425641
 94      -0.000000432462
 95       0.000002374470
 96       0.000006690691
 97      -0.000051728777
 98       0.000010904190
 99       0.000130769978
100       0.000000662090
101       0.000000000750
102       0.008656772842
103       0.000061252118
104      -0.000000020713
105      -0.006323649424
106      -0.000021602346
107       0.000000007951
108       0.000003294614
109       0.000000081260
110       0.000000001918
111      -0.000002396358
112      -0.000584938970
113       0.000014054651
114       0.000000837554
115       0.000000012156
116      -0.000013464471
117      -0.006655785631
118       0.000000003574
119      -0.000626715093
120      -0.000005116855
121      -0.000000005385
122      -0.000000091940
123      -0.000299666100
124      -0.000000447564
125      -0.000011151449
126       0.000056185127
127       0.001684441886
128      -0.006041749370
129       0.001491473265
130       0.000235725786
131      -0.000103686704
132       0.000000006969
133      -0.003843801682
134       0.002409592679
135      -0.000000136412
136      -0.001106395637
137      -0.000039022083
138       0.000000040585
139       0.000170753666
140      -0.000000038723
141       0.000000024069
142      -0.000144611524
143       0.000270581609
144       0.001441303594
145      -0.000000193509
146       0.000000245182
147      -0.001223552500
148       0.001380115373
149       0.000000062568
150       0.000364042415
151      -0.000148406695
152      -0.000000089578
153       0.000000020329
154       0.000129192065
155      -0.000480768819
156       0.000010738949
157      -0.000054072397
158      -0.001670080226
159       0.005973305825
160      -0.001429494489
161       0.000235839613
162       0.000103113313
163      -0.000000012453
164      -0.003798534200
165      -0.002381157264
166       0.000000275729
167      -0.001116257472
168       0.000043775328
169      -0.000000057050
170      -0.000167300172
171      -0.000000037443
172      -0.000000016245
173       0.000141735277
174       0.000266687860
175      -0.001427341422
176      -0.000000170784
177      -0.000000142599
178       0.001212754307
179       0.001354261854
180      -0.000000045605
181       0.000358949926
182       0.000145495142
183       0.000000043051
184       0.000000053883
185       0.000129278984
186       0.000473683210
187      -0.000045595469
188      -0.000349622815
189      -0.000808531062
190       0.000025241614
191      -0.000019756711
192      -0.000028730024
193       0.000004940989
194       0.000421996532
195      -0.000978090490
196       0.000265091559
197       0.000041881145
198       0.000000024515
199      -0.000045546625
200      -0.000349365979
201      -0.000808547382
202       0.000025236084
203      -0.000019785035
204       0.000028812338
205      -0.000005868985
206      -0.000423410650
207       0.000972432945
208       0.000261510582
209      -0.000042725961
210      -0.000000004367
211       0.000045362595
212       0.000346551680
213       0.000794741642
214       0.000024873713
215       0.000018602701
216       0.000027923691
217       0.000045358679
218       0.000346552646
219       0.000794676162
220       0.000024878092
221       0.000018594080
222      -0.000027932874
 Sym=     1a
 Ene= -1.91760546362361E+01
 Spin= Alpha
 Occup= 2.000000
  1       0.305138862311
  2       0.448400728343
  3       0.026181460332
  4      -0.021079694361
  5       0.004603584630
  6       0.000122215716
  7       0.001388563014
  8      -0.000000181439
  9      -0.000595074993
 10      -0.003210850809
 11       0.000000416528
 12       0.000073328774
 13      -0.000314482227
 14       0.000000063200
 15      -0.000240269158
 16       0.000000030499
 17      -0.000000028153
 18       0.000232903061
 19       0.000016937382
 20       0.001281001608
 21      -0.000000016909
 22       0.000000133889
 23      -0.001233812726
 24      -0.000042545845
 25      -0.000000037488
 26       0.000027863018
 27       0.000113576187
 28       0.000000010018
 29      -0.000000000419
 30       0.000026496982
 31       0.000220573901
 32       0.310184711897
 33       0.455815101319
 34       0.026622287370
 35      -0.021479141656
 36       0.004677553864
 37      -0.000122920069
 38       0.001414491639
 39      -0.000000181243
 40       0.000609466778
 41      -0.003287400605
 42       0.000000412191
 43      -0.000100379024
 44      -0.000319402859
 45       0.000000053090
 46      -0.000242848443
 47       0.000000000973
 48      -0.000000023624
 49       0.000235058536
 50      -0.000017504480
 51       0.001298673170
 52      -0.000000000797
 53       0.000000128161
 54      -0.001245608598
 55       0.000046682743
 56      -0.000000035925
 57      -0.000026343136
 58       0.000115421583
 59       0.000000011245
 60      -0.000000002463
 61      -0.000024279495
 62       0.000225273910
 63      -0.000022864570
 64      -0.000040622299
 65      -0.000266852256
 66       0.002575009714
 67      -0.000329132491
 68      -0.000000860600
 69      -0.000058097718
 70       0.000000009553
 71       0.000008867362
 72      -0.001057277725
 73       0.000000105405
 74       0.000014370579
 75      -0.000483511060
 76       0.000000096020
 77      -0.000107843800
 78      -0.000000010993
 79      -0.000000031120
 80      -0.000002233478
 81       0.000000663630
 82       0.000219580233
 83       0.000000008253
 84       0.000000021459
 85      -0.000278831243
 86      -0.000005769520
 87       0.000000018769
 88       0.000000226807
 89      -0.000055401775
 90       0.000000006831
 91      -0.000000000147
 92       0.000000599519
 93      -0.000051925994
 94       0.000051854916
 95      -0.000290279519
 96      -0.000826768278
 97       0.006343741486
 98      -0.001335826570
 99       0.000001058919
100      -0.000081600525
101       0.000000015962
102       0.000071012250
103      -0.007477112892
104       0.000000955206
105      -0.000051552016
106       0.002649535333
107      -0.000000361272
108      -0.000402175445
109      -0.000000003261
110      -0.000000054732
111       0.000289357270
112      -0.000004787657
113      -0.001727648297
114      -0.000000003847
115      -0.000000225155
116       0.001626817616
117      -0.000054759846
118      -0.000000199957
119      -0.000005133290
120       0.000624174607
121      -0.000000110861
122       0.000000004093
123      -0.000002454397
124       0.000060293243
125       0.000026019875
126      -0.000131263453
127      -0.000809727870
128       0.003957378877
129      -0.003674429507
130       0.000011268234
131       0.000031476499
132      -0.000000014083
133       0.002718825518
134      -0.001682460216
135       0.000000376091
136      -0.000623332175
137      -0.000284877461
138      -0.000000037984
139      -0.000208773365
140       0.000000024839
141      -0.000000013738
142       0.000175318696
143      -0.000234638592
144      -0.000823126910
145       0.000000167968
146       0.000000033862
147       0.000643004271
148      -0.001562102442
149      -0.000000035621
150      -0.000307169647
151       0.000164429008
152      -0.000000019231
153      -0.000000093102
154       0.000012727932
155       0.000411826878
156       0.000026194101
157      -0.000132105146
158      -0.000838156948
159       0.004058996791
160      -0.003699884187
161      -0.000007346378
162       0.000033224348
163      -0.000000008373
164      -0.002781914090
165      -0.001722218323
166       0.000000253406
167       0.000604969657
168      -0.000284354288
169      -0.000000020097
170      -0.000211556475
171      -0.000000027614
172      -0.000000022033
173       0.000177682829
174       0.000239033782
175      -0.000846929710
176      -0.000000200075
177      -0.000000073518
178       0.000663187839
179       0.001584565203
180      -0.000000054045
181       0.000313115981
182       0.000167024219
183       0.000000028662
184       0.000000060440
185      -0.000010446123
186       0.000419918072
187       0.000014997313
188       0.000193485769
189       0.000811674570
190      -0.000020319940
191       0.000067903487
192       0.000044033760
193       0.000063790410
194       0.000134909882
195       0.000303383543
196      -0.000206073071
197       0.000063545481
198       0.000000014765
199       0.000015053232
200       0.000193796237
201       0.000811507865
202      -0.000020330287
203       0.000067857311
204      -0.000043959069
205       0.000063587612
206       0.000127245854
207       0.000319846042
208       0.000210564931
209       0.000062655892
210      -0.000000004920
211       0.000015722271
212       0.000199024173
213       0.000825176481
214       0.000020763697
215       0.000068257878
216       0.000044582511
217       0.000015733644
218       0.000199084946
219       0.000825085900
220       0.000020757998
221       0.000068245123
222      -0.000044579790
 Sym=     1a
 Ene= -1.91114537658014E+01
 Spin= Alpha
 Occup= 2.000000
  1       0.000018268306
  2       0.000018004425
  3      -0.000141891620
  4       0.001142230838
  5       0.000766314371
  6       0.000063943494
  7      -0.000024759549
  8       0.000000003600
  9       0.000150564204
 10       0.000755731805
 11      -0.000000099626
 12      -0.001505463392
 13       0.001613297786
 14      -0.000000153381
 15      -0.000063362088
 16      -0.000000004197
 17      -0.000000004030
 18       0.000062368644
 19       0.000012751910
 20       0.000115842469
 21      -0.000000008374
 22      -0.000000022904
 23      -0.000325506265
 24       0.000160371906
 25      -0.000000015548
 26       0.000071920446
 27       0.000047657647
 28      -0.000000016542
 29       0.000000008133
 30       0.000033781965
 31      -0.000068789834
 32       0.000018275829
 33       0.000018035160
 34      -0.000142043159
 35       0.001142483719
 36       0.000766911201
 37      -0.000063996844
 38      -0.000024796784
 39       0.000000003786
 40      -0.000150373434
 41       0.000755923860
 42      -0.000000098747
 43       0.001505369891
 44       0.001613558035
 45      -0.000000159178
 46      -0.000063253644
 47      -0.000000000783
 48      -0.000000001013
 49       0.000062431413
 50      -0.000012805765
 51       0.000115675522
 52       0.000000015227
 53      -0.000000023292
 54      -0.000325479709
 55      -0.000160214825
 56      -0.000000014717
 57      -0.000071933832
 58       0.000047646053
 59      -0.000000018046
 60      -0.000000006812
 61      -0.000033793863
 62      -0.000068840900
 63       0.435079385763
 64       0.639492372102
 65       0.036646152755
 66      -0.031421906123
 67       0.012569156241
 68      -0.000000016309
 69      -0.002321866353
 70       0.000000257942
 71       0.000000033049
 72       0.006632304590
 73      -0.000000751341
 74       0.000000017848
 75      -0.000926131191
 76       0.000000130398
 77      -0.000107727377
 78       0.000000000373
 79      -0.000000054375
 80      -0.000315457453
 81       0.000000005938
 82       0.000632258402
 83      -0.000000001030
 84       0.000000278159
 85       0.001427006348
 86      -0.000000025230
 87       0.000000032974
 88      -0.000000002909
 89      -0.000120870232
 90       0.000000041735
 91      -0.000000000058
 92       0.000000005816
 93       0.000142920389
 94       0.000031464177
 95      -0.000204901604
 96       0.000441591408
 97       0.005480146027
 98      -0.003479130137
 99       0.000000010991
100       0.000798223068
101      -0.000000085603
102      -0.000000078296
103       0.008120441915
104      -0.000000950878
105      -0.000000162057
106      -0.005872711024
107       0.000000663884
108      -0.000222726430
109      -0.000000000219
110      -0.000000080746
111      -0.000337506319
112       0.000000002499
113      -0.001546527736
114       0.000000007530
115      -0.000000863364
116      -0.004928680464
117       0.000000178869
118       0.000000072406
119       0.000000001987
120      -0.000248159902
121      -0.000000002885
122      -0.000000002379
123      -0.000000015096
124      -0.000283424611
125       0.000007511178
126      -0.000036495735
127       0.000354736890
128      -0.001078937153
129      -0.003199997608
130       0.000162281779
131      -0.000017939587
132       0.000000001635
133      -0.000701705254
134       0.000382163747
135      -0.000000062286
136      -0.000140936630
137      -0.000043787662
138      -0.000000012959
139      -0.000032192506
140      -0.000000001145
141      -0.000000008087
142       0.000030119170
143       0.000040808799
144       0.000213270627
145       0.000000003174
146       0.000000009355
147      -0.000214037583
148      -0.000180838747
149      -0.000000009490
150      -0.000010199571
151       0.000018901678
152      -0.000000000709
153      -0.000000006350
154       0.000029753327
155      -0.000007908978
156       0.000007514735
157      -0.000036514277
158       0.000354805765
159      -0.001078948572
160      -0.003200151519
161      -0.000162271318
162      -0.000017937543
163       0.000000001548
164       0.000702497637
165       0.000381774681
166      -0.000000061880
167       0.000140749212
168      -0.000043749565
169      -0.000000016679
170      -0.000032161924
171       0.000000001243
172      -0.000000007698
173       0.000030149994
174      -0.000041251614
175       0.000213119612
176       0.000000004954
177       0.000000001243
178      -0.000214155864
179       0.000180757922
180      -0.000000012189
181       0.000010108191
182       0.000018893525
183      -0.000000001080
184       0.000000001600
185      -0.000029723016
186      -0.000007888010
187      -0.000031961343
188       0.000133524111
189       0.000998834109
190       0.000094452975
191       0.000026286858
192      -0.000005839229
193      -0.000007876090
194       0.000419263282
195       0.000489466580
196       0.000015027998
197       0.000050348538
198       0.000000006732
199      -0.000031949251
200       0.000133482049
201       0.000998854411
202       0.000094439597
203       0.000026291811
204       0.000005822856
205      -0.000007926663
206       0.000418473214
207       0.000489810204
208      -0.000014789391
209       0.000050043268
210      -0.000000010943
211      -0.000031923548
212       0.000133618666
213       0.000998824478
214      -0.000094474978
215       0.000026261785
216      -0.000005861197
217      -0.000031911511
218       0.000133568184
219       0.000998842309
220      -0.000094459791
221       0.000026266586
222       0.000005844574
 Sym=     1a
 Ene= -1.03409371247653E+01
 Spin= Alpha
 Occup= 2.000000
  1       0.000025198163
  2       0.000203022570
  3      -0.002284622601
  4       0.005665526791
  5      -0.005203264844
  6      -0.000558641533
  7      -0.000316440083
  8       0.000000044370
  9       0.003501223395
 10       0.002136281656
 11      -0.000000292550
 12       0.000075359503
 13      -0.002392989823
 14       0.000000296782
 15       0.000027770904
 16       0.000000028673
 17       0.000000003090
 18      -0.000037068615
 19      -0.000221658946
 20      -0.001052999907
 21      -0.000000344043
 22      -0.000000185015
 23       0.000489972755
 24       0.002576284427
 25       0.000000094919
 26      -0.000389059842
 27      -0.000291226498
 28      -0.000000034969
 29      -0.000000141801
 30       0.000344477395
 31      -0.000606795282
 32       0.000025184953
 33       0.000203032120
 34      -0.002284695235
 35       0.005665636393
 36      -0.005203364716
 37       0.000558627907
 38      -0.000316450322
 39       0.000000042490
 40      -0.003501140594
 41       0.002136353122
 42      -0.000000280089
 43      -0.000075294952
 44      -0.002393028025
 45       0.000000291033
 46       0.000027775635
 47      -0.000000028062
 48       0.000000002852
 49      -0.000037064993
 50       0.000221662017
 51      -0.001053022440
 52       0.000000331057
 53      -0.000000175401
 54       0.000489895790
 55      -0.002576287245
 56       0.000000091251
 57       0.000389047184
 58      -0.000291237012
 59      -0.000000034651
 60       0.000000135828
 61      -0.000344508260
 62      -0.000606778734
 63       0.000083808772
 64       0.000254179806
 65      -0.002647615602
 66       0.010260476556
 67       0.002559083178
 68       0.000000006872
 69       0.000526570693
 70      -0.000000061546
 71      -0.000000088143
 72      -0.007525898422
 73       0.000000857807
 74       0.000000044144
 75      -0.000252752235
 76       0.000000004288
 77      -0.000025697952
 78       0.000000000023
 79      -0.000000008349
 80      -0.000023233987
 81       0.000000002607
 82      -0.001425824088
 83       0.000000000411
 84      -0.000000589676
 85      -0.002771727323
 86       0.000000046509
 87      -0.000000073907
 88       0.000000001422
 89       0.000269420700
 90      -0.000000132454
 91      -0.000000000656
 92      -0.000000017771
 93      -0.000628370463
 94      -0.467011018306
 95      -0.607933014409
 96      -0.036658685514
 97       0.008886948147
 98      -0.004909221372
 99      -0.000000002645
100       0.000107359173
101      -0.000000035072
102      -0.000000007598
103      -0.005367222558
104       0.000000551241
105      -0.000000041564
106      -0.000559014845
107       0.000000092988
108       0.002572466754
109       0.000000006974
110       0.000000645807
111       0.000958598193
112      -0.000000023377
113       0.002769731474
114       0.000000008030
115       0.000000871763
116       0.002691350917
117      -0.000000051697
118      -0.000000021772
119       0.000000001714
120       0.000211816787
121      -0.000000491381
122      -0.000000007930
123      -0.000000102197
124      -0.003136303698
125       0.000029096919
126      -0.000021979788
127      -0.000059798809
128       0.001765146053
129       0.002034690906
130       0.000064313673
131      -0.000072208096
132      -0.000000006860
133       0.001537857034
134       0.000308404363
135       0.000000181049
136       0.001072200527
137       0.000370743469
138      -0.000000060802
139      -0.000131862691
140       0.000000002849
141      -0.000000014372
142       0.000057746154
143      -0.000053224578
144       0.000588490911
145       0.000000046153
146       0.000000241365
147       0.000395062311
148      -0.000646001875
149       0.000000010315
150       0.000002685452
151       0.000007072349
152      -0.000000000959
153       0.000000005953
154       0.000015502823
155       0.000100115763
156       0.000029101460
157      -0.000021944717
158      -0.000059622799
159       0.001764054917
160       0.002035296333
161      -0.000064319547
162      -0.000072210109
163      -0.000000004439
164      -0.001538348552
165       0.000309031205
166       0.000000147639
167      -0.001072070840
168       0.000370682412
169      -0.000000059808
170      -0.000131829903
171      -0.000000004148
172      -0.000000015526
173       0.000057747565
174       0.000053280536
175       0.000588720576
176      -0.000000046544