
                                 *****************
                                 * O   R   C   A *
                                 *****************

                                            #,                                       
                                            ###                                      
                                            ####                                     
                                            #####                                    
                                            ######                                   
                                           ########,                                 
                                     ,,################,,,,,                         
                               ,,#################################,,                 
                          ,,##########################################,,             
                       ,#########################################, ''#####,          
                    ,#############################################,,   '####,        
                  ,##################################################,,,,####,       
                ,###########''''           ''''###############################       
              ,#####''   ,,,,##########,,,,          '''####'''          '####       
            ,##' ,,,,###########################,,,                        '##       
           ' ,,###''''                  '''############,,,                           
         ,,##''                                '''############,,,,        ,,,,,,###''
      ,#''                                            '''#######################'''  
     '                                                          ''''####''''         
             ,#######,   #######,   ,#######,      ##                                
            ,#'     '#,  ##    ##  ,#'     '#,    #''#        ,####,   ,####,        
            ##       ##  ##   ,#'  ##            #'  '#       #'       #'  '#        
            ##       ##  #######   ##           ,######,      #####,   #    #        
            '#,     ,#'  ##    ##  '#,     ,#' ,#      #,     #,   #   #,  ,#        
             '#######'   ##     ##  '#######'  #'      '#     '####' # '####'        



                #########################################################
                #                        -***-                          #
                #          Department of theory and spectroscopy        #
                #                                                       #
                #                      Frank Neese                      #
                #                                                       #
                #     Directorship, Architecture, Infrastructure        #
                #                    SHARK, DRIVERS                     #
                #        Core code/Algorithms in most modules           #
                #                                                       #
                #        Max Planck Institute fuer Kohlenforschung      #
                #                Kaiser Wilhelm Platz 1                 #
                #                 D-45470 Muelheim/Ruhr                 #
                #                      Germany                          #
                #                                                       #
                #                  All rights reserved                  #
                #                        -***-                          #
                #########################################################


                         Program Version 6.0.1  -  RELEASE   -


 With contributions from (in alphabetic order):
[Max-Planck-Institut fuer Kohlenforschung]                               
  Daniel Aravena         : Magnetic Suceptibility                        
  Michael Atanasov       : Ab Initio Ligand Field Theory (pilot matlab implementation)
  Alexander A. Auer      : GIAO ZORA, VPT2 properties, NMR spectrum      
  Ute Becker             : All parallelization in ORCA, NUMFREQ, NUMCALC 
  Giovanni Bistoni       : ED, misc. LED, open-shell LED, HFLD           
  Martin Brehm           : Molecular dynamics                            
  Dmytro Bykov           : pre 5.0 version of the SCF Hessian            
  Marcos Casanova-Páez   : Triplet and SCS-CIS(D). UHF-(DLPNO)-IP/EA/STEOM-CCSD. UHF-CVS-IP/STEOM-CCSD   
  Vijay G. Chilkuri      : MRCI spin determinant printing, contributions to CSF-ICE 
  Pauline Colinet        : FMM embedding                                 
  Dipayan Datta          : RHF DLPNO-CCSD density                        
  Achintya Kumar Dutta   : EOM-CC, STEOM-CC                              
  Nicolas Foglia         : Exact transition moments, OPA infrastructure, MCD improvements    
  Dmitry Ganyushin       : Spin-Orbit,Spin-Spin,Magnetic field MRCI      
  Miquel Garcia-Rates    : C-PCM and meta-GGA Hessian, CCSD/C-PCM, Gaussian charge scheme 
  Tiago L. C. Gouveia    : GS-ROHF, GS-ROCIS                             
  Yang Guo               : DLPNO-NEVPT2, F12-NEVPT2, CIM, IAO-localization        
  Andreas Hansen         : Spin unrestricted coupled pair/coupled cluster methods 
  Ingolf Harden          : AUTO-CI MPn and infrastructure                
  Benjamin Helmich-Paris : MC-RPA, TRAH-(SCF,CASSCF), AVAS, COSX integrals, SCF dyn. polar. 
  Lee Huntington         : MR-EOM, pCC                                   
  Robert Izsak           : Overlap fitted RIJCOSX, COSX-SCS-MP3, EOM     
  Riya Kayal             : Wick's Theorem for AUTO-CI, AUTO-CI UHF-CCSDT 
  Emily Kempfer          : AUTO-CI, RHF CISDT and CCSDT                  
  Christian Kollmar      : KDIIS, OOCD, Brueckner-CCSD(T), CCSD density, CASPT2, CASPT2-K, improved NEVPT2 
  Axel Koslowski         : Symmetry handling                             
  Simone Kossmann        : meta-GGA functionals, TD-DFT gradient, OOMP2, (MP2 Hessian; deprecated post 5.0) 
  Lucas Lang             : DCDCAS                                        
  Marvin Lechner         : AUTO-CI (C++ implementation), FIC-MRCC        
  Spencer Leger          : CASSCF response                               
  Dagmar Lenk            : GEPOL surface, SMD, ORCA-2-JSON               
  Dimitrios Liakos       : Extrapolation schemes; Compound Job, initial MDCI parallelization 
  Dimitrios Manganas     : Further ROCIS development; embedding schemes. LFT, Crystal Embedding 
  Dimitrios Pantazis     : SARC Basis sets                               
  Anastasios Papadopoulos: AUTO-CI, single reference methods and gradients 
  Taras Petrenko         : pre 6.0 DFT Hessian and TD-DFT gradient, (ASA, deprecated), ECA, 1-Electron XAS/XES, NRVS 
  Peter Pinski           : DLPNO-MP2, DLPNO-MP2 Gradient                 
  Christoph Reimann      : Effective Core Potentials                     
  Marius Retegan         : Local ZFS, SOC                                
  Christoph Riplinger    : Optimizer, TS searches, QM/MM, DLPNO-CCSD(T), (RO)-DLPNO pert. Triples 
  Michael Roemelt        : Original ROCIS implementation                 
  Masaaki Saitow         : Open-shell DLPNO-CCSD energy and density      
  Barbara Sandhoefer     : DKH picture change effects                    
  Kantharuban Sivalingam : CASSCF convergence/infrastructure, NEVPT2 and variants, FIC-MRCI 
  Bernardo de Souza      : ESD, SOC TD-DFT                               
  Georgi L. Stoychev     : AutoAux, RI-MP2 NMR, DLPNO-MP2 response, X2C  
  Van Anh Tran           : RI-MP2 g-tensors                              
  Willem Van den Heuvel  : Paramagnetic NMR                              
  Zikuan Wang            : NOTCH, Electric field optimization            
  Frank Wennmohs         : Technical directorship and infrastructure     
  Hang Xu                : AUTO-CI-Response properties                   
                                                                         
[FACCTs GmbH]                                                            
  Markus Bursch, Miquel Garcia-Rates, Christoph Riplinger, Bernardo de Souza, Georgi L. Stoychev 
                                                                 
  APM, Basis sets (HGBS, AHGBS, def-TZVP (Ac-Lr), def2-XVPD (La-Lu)), CI-OPT, improved COSX, DLPNO-Multilevel,           
  DOCKER, DRACO, updates on ESD, GOAT, IRC, LR-CPCM, MBIS, meta-GGA TD-DFT gradient, ML-optimized integration grids, 
  MM, NACMEs, nearIR, NEB, NEB-TS, NL-DFT gradient (VV10), 2- and 3-layer-ONIOM, interface openCOSMO-RS, QMMM,   
  Crystal-QMMM, SF, symmetry and pop. for TD-DFT, r2SCAN hybrids, SOLVATOR                                   
                                                                         
[Other institutions]                                                     
  V. Asgeirsson          : NEB                                           
  Christoph Bannwarth    : sTDA-DFT, sTD-DFT, PBEh-3c, B97-3c, D3        
  Sebastian Ehlert       : rSCAN, r2SCAN, r2SCAN-3c, D4, dhf basis sets  
  Marvin Friede          : D4 for Fr, Ra, Ac-Lr                          
  Lars Goerigk           : TD-DFT with DH, B97 family of functionals     
  Stefan Grimme          : VdW corrections, initial TS optimization, DFT functionals, gCP, sTDA/sTD-DF 
  Waldemar Hujo          : DFT-NL                                        
  H. Jonsson             : NEB                                           
  Holger Kruse           : gCP                                           
  Marcel Mueller         : wB97X-3c, vDZP basis set                      
  Hagen Neugebauer       : wr2SCAN                                       
  Tobias Risthaus        : range-separated hybrid DFT                    
  Lukas Wittmann         : regularized MP2, r2SCAN double-hybrids, wr2SCAN        
                                                                         
We gratefully acknowledge several colleagues who have allowed us to      
interface, adapt or use parts of their codes:                            
  Ed Valeev, F. Pavosevic, A. Kumar             : LibInt (2-el integral package), F12 methods 
  Garnet Chan, S. Sharma, J. Yang, R. Olivares  : DMRG                   
  Ulf Ekstrom                                   : XCFun DFT Library      
  Mihaly Kallay                                 : mrcc  (arbitrary order and MRCC methods)
  Frank Weinhold                                : gennbo (NPA and NBO analysis)           
  Simon Mueller                                 : openCOSMO-RS                            
  Christopher J. Cramer and Donald G. Truhlar   : smd solvation model                     
  S Lehtola, MJT Oliveira, MAL Marques          : LibXC Library                           
  Liviu Ungur et al                             : ANISO software                          


 Your calculation uses the libint2 library for the computation of 2-el integrals
 For citations please refer to: http://libint.valeyev.net

 Your ORCA version has been built with support for libXC version: 6.2.2
 For citations please refer to: https://libxc.gitlab.io

 This ORCA versions uses:
   CBLAS   interface :  Fast vector & matrix operations
   LAPACKE interface :  Fast linear algebra routines
   SCALAPACK package :  Parallel linear algebra routines
   Shared memory     :  Shared parallel matrices
   BLAS/LAPACK       :  OpenBLAS 0.3.27  USE64BITINT DYNAMIC_ARCH NO_AFFINITY SkylakeX SINGLE_THREADED
        Core in use  :  SkylakeX
   Copyright (c) 2011-2014, The OpenBLAS Project


NOTE: MaxCore=5000 MB was set to SCF,MP2,MDCI,CIPSI,MRCI and CIS
      => If you want to overwrite this, your respective input block should be placed after the MaxCore statement
Warning: RI is on but no J-basis has been assigned. Assigning Def2/J (nothing to worry about!)
================================================================================

----- Orbital basis set information -----
Your calculation utilizes the basis: def2-TZVP
   F. Weigend and R. Ahlrichs, Phys. Chem. Chem. Phys. 7, 3297 (2005).

----- AuxJ basis set information -----
Your calculation utilizes the auxiliary basis: def2/J
   F. Weigend, Phys. Chem. Chem. Phys. 8, 1057 (2006).

================================================================================
                                        WARNINGS
                       Please study these warnings very carefully!
================================================================================


WARNING: Geometry Optimization
  ===> : Switching off AutoStart
         For restart on a previous wavefunction, please use MOREAD

================================================================================
                                       INPUT FILE
================================================================================
NAME = honokiol2.inp
|  1> ! OPT B3LYP def2-TZVP TightSCF
|  2> 
|  3> %maxcore 5000
|  4> 
|  5> %pal
|  6> nprocs 20
|  7> end
|  8> 
|  9> * xyz 0 1
| 10> O           1.43378856117993      1.31734775544901      2.48532878704755
| 11>   O          -3.61759593235923     -2.42612042151161      2.16828097326700
| 12>   C           1.23259531625688     -0.04424895285409      0.48054092064545
| 13>   C          -0.04814948585324     -0.65362146441303      0.92523711290438
| 14>   C          -2.39984678574313     -1.17526750499472      0.47829068367683
| 15>   C          -1.18455029902863     -0.60060331018128      0.11325968323194
| 16>   C           2.98761379128301      0.16844308492504     -1.21190036940965
| 17>   C           1.78817268742070     -0.37559046819200     -0.75719273828169
| 18>   C           1.91206506007886      0.89297409741253      1.27855399855155
| 19>   C          -0.16045718514641     -1.31913950276113      2.15262110410695
| 20>   C          -2.47255147328237     -1.84292481016932      1.71152840961013
| 21>   C          -3.61620733806529     -1.04061596953390     -0.41662492249827
| 22>   C           3.56130520630761     -0.23600690753771     -2.55722045677385
| 23>   C           3.64056274898743      1.08391203633622     -0.38802618778291
| 24>   C          -1.35539418147496     -1.90682420710594      2.53919954446887
| 25>   C           3.10971451443649      1.44752321067866      0.84139620467642
| 26>   C          -4.21335133088123     -2.35368672786617     -0.85402089359666
| 27>   C           2.68067938660015      0.13590398059648     -3.71833292168709
| 28>   C          -5.48935119380702     -2.69818410676453     -0.70517054166232
| 29>   C           2.20004918343486     -0.71471581227430     -4.61748788187430
| 30>   H          -1.12391727300566     -0.07562210183326     -0.83337572916056
| 31>   H           1.26718543416149     -1.09726293241676     -1.37628059680765
| 32>   H           0.70642433760134     -1.41188769900069      2.79610646428563
| 33>   H          -4.38760441171486     -0.44466576360966      0.08378660305202
| 34>   H          -3.31968618387752     -0.47824663060489     -1.30670040199888
| 35>   H           3.74893414677893     -1.31396958894030     -2.57920248904866
| 36>   H           4.53425197797907      0.25157071420511     -2.67847158284484
| 37>   H           4.57808011039383      1.52314579005903     -0.70970643922769
| 38>   H          -1.43747111745324     -2.43825272022503      3.47859792104764
| 39>   H           3.60696165004599      2.17095530034718      1.47473827625589
| 40>   H          -3.52532659015420     -3.05266449139889     -1.32283008534001
| 41>   H           2.43094433741273      1.19120475436488     -3.79852587282295
| 42>   H           0.56136956736516      0.92975363081184      2.63785973273296
| 43>   H          -4.23517174724066     -2.57200466589471      1.43715524759518
| 44>   H          -5.86253041449204     -3.65438500126878     -1.04954998769471
| 45>   H          -6.21032178489019     -2.02856769185887     -0.24697909333646
| 46>   H           1.57293571730585     -0.38258015638858     -5.43562674978961
| 47>   H           2.42121092353956     -1.77586795468579     -4.57136923061765
| 48> *
| 49> 
| 50>                          ****END OF INPUT****
================================================================================

                       *****************************
                       * Geometry Optimization Run *
                       *****************************

Geometry optimization settings:
Update method            Update   .... BFGS
Choice of coordinates    CoordSys .... (2022) Redundant Internals
Initial Hessian          InHess   .... Almloef's Model
Max. no of cycles        MaxIter  .... 114

Convergence Tolerances:
Energy Change            TolE     ....  5.0000e-06 Eh
Max. Gradient            TolMAXG  ....  3.0000e-04 Eh/bohr
RMS Gradient             TolRMSG  ....  1.0000e-04 Eh/bohr
Max. Displacement        TolMAXD  ....  4.0000e-03 bohr
RMS Displacement         TolRMSD  ....  2.0000e-03 bohr
Strict Convergence                .... False

------------------------------------------------------------------------------
                        ORCA OPTIMIZATION COORDINATE SETUP
------------------------------------------------------------------------------

The optimization will be done in redundant internal coordinates (2022)
Making redundant internal coordinates   ...  (2022 redundants) done
Evaluating the initial hessian          ...  (Almloef) done
Evaluating the coordinates              ...  done
Calculating the B-matrix                .... done
Calculating the G-matrix                .... done
Diagonalizing the G-matrix              .... done
Small eigenvalue found = 2.434e-03
Small eigenvalue found = 8.577e-03
Small eigenvalue found = 1.506e-02
Small eigenvalue found = 1.667e-02
Small eigenvalue found = 2.179e-02
Small eigenvalue found = 2.837e-02
The first mode is                       ....   77
The number of degrees of freedom        ....  108

    -----------------------------------------------------------------
                    Redundant Internal Coordinates


    -----------------------------------------------------------------
         Definition                    Initial Value    Approx d2E/dq
    -----------------------------------------------------------------
      1. B(C   3,C   2)                  1.4864         0.438462   
      2. B(C   5,C   3)                  1.3977         0.607403   
      3. B(C   5,C   4)                  1.3930         0.617962   
      4. B(C   7,C   6)                  1.3933         0.617182   
      5. B(C   7,C   2)                  1.3966         0.609873   
      6. B(C   8,C   2)                  1.4060         0.589088   
      7. B(C   8,O   0)                  1.3657         0.611841   
      8. B(C   9,C   3)                  1.4007         0.600683   
      9. B(C  10,C   4)                  1.4043         0.592923   
     10. B(C  10,O   1)                  1.3638         0.616204   
     11. B(C  11,C   4)                  1.5161         0.393156   
     12. B(C  12,C   6)                  1.5174         0.391233   
     13. B(C  13,C   6)                  1.3940         0.615716   
     14. B(C  14,C  10)                  1.3918         0.620633   
     15. B(C  14,C   9)                  1.3866         0.632623   
     16. B(C  15,C  13)                  1.3876         0.630281   
     17. B(C  15,C   8)                  1.3903         0.624057   
     18. B(C  16,C  11)                  1.5073         0.406015   
     19. B(C  17,C  12)                  1.5040         0.411023   
     20. B(C  18,C  16)                  1.3300         0.778751   
     21. B(C  19,C  17)                  1.3278         0.785205   
     22. B(H  20,C   5)                  1.0842         0.367911   
     23. B(H  21,C   7)                  1.0842         0.367843   
     24. B(H  22,C   9)                  1.0836         0.368685   
     25. B(H  23,C  11)                  1.0957         0.352601   
     26. B(H  24,C  11)                  1.0938         0.355096   
     27. B(H  25,C  12)                  1.0944         0.354338   
     28. B(H  26,C  12)                  1.0950         0.353526   
     29. B(H  27,C  13)                  1.0841         0.367946   
     30. B(H  28,C  14)                  1.0824         0.370275   
     31. B(H  29,C  15)                  1.0825         0.370207   
     32. B(H  30,C  16)                  1.0871         0.363992   
     33. B(H  31,C  17)                  1.0874         0.363544   
     34. B(H  32,O   0)                  0.9668         0.507217   
     35. B(H  33,O   1)                  0.9681         0.504703   
     36. B(H  34,C  18)                  1.0827         0.369925   
     37. B(H  35,C  18)                  1.0854         0.366218   
     38. B(H  36,C  19)                  1.0830         0.369450   
     39. B(H  37,C  19)                  1.0849         0.366863   
     40. A(C   8,O   0,H  32)          109.3214         0.367705   
     41. A(C  10,O   1,H  33)          110.3110         0.367840   
     42. A(C   7,C   2,C   8)          117.9639         0.428826   
     43. A(C   3,C   2,C   7)          120.7074         0.406855   
     44. A(C   3,C   2,C   8)          121.3232         0.404370   
     45. A(C   2,C   3,C   9)          121.7373         0.405764   
     46. A(C   2,C   3,C   5)          120.7444         0.406563   
     47. A(C   5,C   3,C   9)          117.5091         0.430015   
     48. A(C  10,C   4,C  11)          121.2705         0.397132   
     49. A(C   5,C   4,C  11)          120.5729         0.400031   
     50. A(C   5,C   4,C  10)          118.1283         0.430342   
     51. A(C   3,C   5,H  20)          118.6952         0.352965   
     52. A(C   3,C   5,C   4)          122.7829         0.432211   
     53. A(C   4,C   5,H  20)          118.5133         0.353996   
     54. A(C   7,C   6,C  13)          117.8246         0.433170   
     55. A(C   7,C   6,C  12)          120.7115         0.399597   
     56. A(C  12,C   6,C  13)          121.4625         0.399430   
     57. A(C   2,C   7,H  21)          118.2175         0.353196   
     58. A(C   6,C   7,H  21)          119.1570         0.353909   
     59. A(C   2,C   7,C   6)          122.6185         0.432428   
     60. A(O   0,C   8,C   2)          122.6436         0.426275   
     61. A(C   2,C   8,C  15)          120.2452         0.430599   
     62. A(O   0,C   8,C  15)          117.1016         0.430706   
     63. A(C   3,C   9,C  14)          120.9816         0.433169   
     64. A(C  14,C   9,H  22)          119.1821         0.355533   
     65. A(C   3,C   9,H  22)          119.7942         0.352426   
     66. A(O   1,C  10,C   4)          122.7465         0.427315   
     67. A(O   1,C  10,C  14)          117.0732         0.430830   
     68. A(C   4,C  10,C  14)          120.1667         0.430675   
     69. A(C   4,C  11,C  16)          114.3152         0.371823   
     70. A(H  23,C  11,H  24)          106.4301         0.289245   
     71. A(C  16,C  11,H  24)          108.6111         0.328038   
     72. A(C   4,C  11,H  24)          107.9688         0.326303   
     73. A(C  16,C  11,H  23)          109.1120         0.327657   
     74. A(C   4,C  11,H  23)          110.0934         0.325924   
     75. A(C   6,C  12,C  17)          113.4019         0.372294   
     76. A(H  25,C  12,H  26)          106.5008         0.289267   
     77. A(C   6,C  12,H  26)          108.3857         0.325802   
     78. A(C  17,C  12,H  25)          109.1747         0.328586   
     79. A(C   6,C  12,H  25)          110.1917         0.325925   
     80. A(C  17,C  12,H  26)          108.9449         0.328462   
     81. A(C   6,C  13,C  15)          121.1002         0.434810   
     82. A(C  15,C  13,H  27)          119.1795         0.355189   
     83. A(C   6,C  13,H  27)          119.7202         0.353784   
     84. A(C  10,C  14,H  28)          118.5401         0.354640   
     85. A(C   9,C  14,H  28)          121.0234         0.355793   
     86. A(C   9,C  14,C  10)          120.4282         0.435724   
     87. A(C  13,C  15,H  29)          121.1834         0.355558   
     88. A(C   8,C  15,H  29)          118.5747         0.354960   
     89. A(C   8,C  15,C  13)          120.2390         0.435865   
     90. A(C  11,C  16,C  18)          124.9750         0.419141   
     91. A(C  18,C  16,H  30)          119.2696         0.367561   
     92. A(C  11,C  16,H  30)          115.7554         0.329380   
     93. A(C  12,C  17,C  19)          125.1925         0.420677   
     94. A(C  19,C  17,H  31)          119.2511         0.368004   
     95. A(C  12,C  17,H  31)          115.5556         0.329981   
     96. A(H  34,C  18,H  35)          116.7552         0.292849   
     97. A(C  16,C  18,H  35)          121.6480         0.367945   
     98. A(C  16,C  18,H  34)          121.5899         0.368582   
     99. A(H  36,C  19,H  37)          116.7501         0.292871   
    100. A(C  17,C  19,H  37)          121.6016         0.368578   
    101. A(C  17,C  19,H  36)          121.6475         0.369023   
    102. D(C   5,C   3,C   2,C   8)    126.0051         0.013120   
    103. D(C   9,C   3,C   2,C   8)    -55.1317         0.013120   
    104. D(C   9,C   3,C   2,C   7)    125.7432         0.013120   
    105. D(C   5,C   3,C   2,C   7)    -53.1200         0.013120   
    106. D(H  20,C   5,C   4,C  11)     -1.3479         0.026414   
    107. D(H  20,C   5,C   3,C   2)     -2.1215         0.025468   
    108. D(H  20,C   5,C   4,C  10)   -179.4373         0.026414   
    109. D(C   3,C   5,C   4,C  10)     -0.5216         0.026414   
    110. D(C   3,C   5,C   4,C  11)    177.5678         0.026414   
    111. D(C   4,C   5,C   3,C   9)      0.0548         0.025468   
    112. D(C   4,C   5,C   3,C   2)    178.9647         0.025468   
    113. D(H  20,C   5,C   3,C   9)    178.9686         0.025468   
    114. D(C   6,C   7,C   2,C   3)   -179.8224         0.025688   
    115. D(C   6,C   7,C   2,C   8)      1.0238         0.025688   
    116. D(H  21,C   7,C   2,C   3)     -0.7958         0.025688   
    117. D(H  21,C   7,C   6,C  13)   -179.3957         0.026344   
    118. D(H  21,C   7,C   6,C  12)      0.1859         0.026344   
    119. D(C   2,C   7,C   6,C  13)     -0.3779         0.026344   
    120. D(C   2,C   7,C   6,C  12)    179.2037         0.026344   
    121. D(H  21,C   7,C   2,C   8)   -179.9497         0.025688   
    122. D(C  15,C   8,C   2,C   7)     -0.9448         0.023878   
    123. D(C  15,C   8,C   2,C   3)    179.9069         0.023878   
    124. D(O   0,C   8,C   2,C   7)    177.8925         0.023878   
    125. D(C  15,C   8,O   0,H  32)    174.4716         0.027413   
    126. D(O   0,C   8,C   2,C   3)     -1.2558         0.023878   
    127. D(C   2,C   8,O   0,H  32)     -4.4000         0.027413   
    128. D(H  22,C   9,C   3,C   5)    177.9164         0.024877   
    129. D(C  14,C   9,C   3,C   5)      0.2958         0.024877   
    130. D(H  22,C   9,C   3,C   2)     -0.9820         0.024877   
    131. D(C  14,C   9,C   3,C   2)   -178.6026         0.024877   
    132. D(C   4,C  10,O   1,H  33)     18.8822         0.027834   
    133. D(C  14,C  10,C   4,C  11)   -177.4278         0.024205   
    134. D(C  14,C  10,C   4,C   5)      0.6476         0.024205   
    135. D(O   1,C  10,C   4,C  11)      1.1901         0.024205   
    136. D(O   1,C  10,C   4,C   5)    179.2655         0.024205   
    137. D(C  14,C  10,O   1,H  33)   -162.4597         0.027834   
    138. D(H  24,C  11,C   4,C   5)      1.3451         0.011490   
    139. D(H  23,C  11,C   4,C  10)     63.5718         0.011490   
    140. D(H  23,C  11,C   4,C   5)   -114.4568         0.011490   
    141. D(C  16,C  11,C   4,C  10)    -59.6485         0.011490   
    142. D(C  16,C  11,C   4,C   5)    122.3228         0.011490   
    143. D(H  26,C  12,C   6,C   7)   -175.9080         0.011384   
    144. D(H  25,C  12,C   6,C  13)    119.8349         0.011384   
    145. D(H  25,C  12,C   6,C   7)    -59.7313         0.011384   
    146. D(C  17,C  12,C   6,C  13)   -117.4486         0.011384   
    147. D(C  17,C  12,C   6,C   7)     62.9853         0.011384   
    148. D(H  27,C  13,C   6,C  12)      0.1715         0.026211   
    149. D(H  27,C  13,C   6,C   7)    179.7497         0.026211   
    150. D(C  15,C  13,C   6,C  12)   -179.9415         0.026211   
    151. D(C  15,C  13,C   6,C   7)     -0.3632         0.026211   
    152. D(H  28,C  14,C  10,C   4)   -179.2793         0.026657   
    153. D(H  28,C  14,C  10,O   1)      2.0261         0.026657   
    154. D(C   9,C  14,C  10,C   4)     -0.3195         0.026657   
    155. D(C   9,C  14,C  10,O   1)   -179.0140         0.026657   
    156. D(H  28,C  14,C   9,H  22)      1.1333         0.027764   
    157. D(H  28,C  14,C   9,C   3)    178.7683         0.027764   
    158. D(C  10,C  14,C   9,H  22)   -177.8004         0.027764   
    159. D(C  10,C  14,C   9,C   3)     -0.1654         0.027764   
    160. D(C   8,C  15,C  13,C   6)      0.4252         0.027545   
    161. D(H  29,C  15,C   8,C   2)    179.6339         0.026970   
    162. D(H  29,C  15,C   8,O   0)      0.7337         0.026970   
    163. D(C  13,C  15,C   8,C   2)      0.2490         0.026970   
    164. D(C  13,C  15,C   8,O   0)   -178.6512         0.026970   
    165. D(H  29,C  15,C  13,H  27)      0.9442         0.027545   
    166. D(H  29,C  15,C  13,C   6)   -178.9434         0.027545   
    167. D(C   8,C  15,C  13,H  27)   -179.6872         0.027545   
    168. D(H  30,C  16,C  11,H  23)   -177.1581         0.012218   
    169. D(H  30,C  16,C  11,C   4)    -53.4094         0.012218   
    170. D(C  18,C  16,C  11,H  24)   -112.8358         0.012218   
    171. D(C  18,C  16,C  11,H  23)      2.7938         0.012218   
    172. D(C  18,C  16,C  11,C   4)    126.5426         0.012218   
    173. D(H  31,C  17,C  12,H  25)   -179.7654         0.012510   
    174. D(H  31,C  17,C  12,C   6)     56.9578         0.012510   
    175. D(C  19,C  17,C  12,H  26)    116.4911         0.012510   
    176. D(C  19,C  17,C  12,H  25)      0.5596         0.012510   
    177. D(C  19,C  17,C  12,C   6)   -122.7172         0.012510   
    178. D(H  35,C  18,C  16,H  30)   -179.6963         0.043576   
    179. D(H  35,C  18,C  16,C  11)      0.3534         0.043576   
    180. D(H  34,C  18,C  16,H  30)     -0.6798         0.043576   
    181. D(H  34,C  18,C  16,C  11)    179.3699         0.043576   
    182. D(H  37,C  19,C  17,H  31)   -179.7229         0.044377   
    183. D(H  37,C  19,C  17,C  12)     -0.0590         0.044377   
    184. D(H  36,C  19,C  17,H  31)      0.6271         0.044377   
    185. D(H  36,C  19,C  17,C  12)   -179.7090         0.044377   
    -----------------------------------------------------------------

Number of atoms                         .... 38
Number of degrees of freedom            .... 185


         *************************************************************
         *                GEOMETRY OPTIMIZATION CYCLE   1            *
         *************************************************************
---------------------------------
CARTESIAN COORDINATES (ANGSTROEM)
---------------------------------
  O      1.433789    1.317348    2.485329
  O     -3.617596   -2.426120    2.168281
  C      1.232595   -0.044249    0.480541
  C     -0.048149   -0.653621    0.925237
  C     -2.399847   -1.175268    0.478291
  C     -1.184550   -0.600603    0.113260
  C      2.987614    0.168443   -1.211900
  C      1.788173   -0.375590   -0.757193
  C      1.912065    0.892974    1.278554
  C     -0.160457   -1.319140    2.152621
  C     -2.472551   -1.842925    1.711528
  C     -3.616207   -1.040616   -0.416625
  C      3.561305   -0.236007   -2.557220
  C      3.640563    1.083912   -0.388026
  C     -1.355394   -1.906824    2.539200
  C      3.109715    1.447523    0.841396
  C     -4.213351   -2.353687   -0.854021
  C      2.680679    0.135904   -3.718333
  C     -5.489351   -2.698184   -0.705171
  C      2.200049   -0.714716   -4.617488
  H     -1.123917   -0.075622   -0.833376
  H      1.267185   -1.097263   -1.376281
  H      0.706424   -1.411888    2.796106
  H     -4.387604   -0.444666    0.083787
  H     -3.319686   -0.478247   -1.306700
  H      3.748934   -1.313970   -2.579202
  H      4.534252    0.251571   -2.678472
  H      4.578080    1.523146   -0.709706
  H     -1.437471   -2.438253    3.478598
  H      3.606962    2.170955    1.474738
  H     -3.525327   -3.052664   -1.322830
  H      2.430944    1.191205   -3.798526
  H      0.561370    0.929754    2.637860
  H     -4.235172   -2.572005    1.437155
  H     -5.862530   -3.654385   -1.049550
  H     -6.210322   -2.028568   -0.246979
  H      1.572936   -0.382580   -5.435627
  H      2.421211   -1.775868   -4.571369

----------------------------
CARTESIAN COORDINATES (A.U.)
----------------------------
  NO LB      ZA    FRAG     MASS         X           Y           Z
   0 O     8.0000    0    15.999    2.709468    2.489426    4.696591
   1 O     8.0000    0    15.999   -6.836266   -4.584703    4.097457
   2 C     6.0000    0    12.011    2.329268   -0.083618    0.908091
   3 C     6.0000    0    12.011   -0.090989   -1.235166    1.748445
   4 C     6.0000    0    12.011   -4.535053   -2.220934    0.903838
   5 C     6.0000    0    12.011   -2.238476   -1.134976    0.214030
   6 C     6.0000    0    12.011    5.645772    0.318311   -2.290160
   7 C     6.0000    0    12.011    3.379157   -0.709763   -1.430887
   8 C     6.0000    0    12.011    3.613279    1.687476    2.416117
   9 C     6.0000    0    12.011   -0.303220   -2.492812    4.067864
  10 C     6.0000    0    12.011   -4.672445   -3.482623    3.234320
  11 C     6.0000    0    12.011   -6.833642   -1.966479   -0.787307
  12 C     6.0000    0    12.011    6.729892   -0.445988   -4.832446
  13 C     6.0000    0    12.011    6.879667    2.048297   -0.733263
  14 C     6.0000    0    12.011   -2.561324   -3.603376    4.798392
  15 C     6.0000    0    12.011    5.876509    2.735422    1.590008
  16 C     6.0000    0    12.011   -7.962080   -4.447823   -1.613866
  17 C     6.0000    0    12.011    5.065750    0.256821   -7.026631
  18 C     6.0000    0    12.011  -10.373370   -5.098829   -1.332579
  19 C     6.0000    0    12.011    4.157490   -1.350617   -8.725788
  20 H     1.0000    0     1.008   -2.123896   -0.142905   -1.574852
  21 H     1.0000    0     1.008    2.394633   -2.073526   -2.600793
  22 H     1.0000    0     1.008    1.334949   -2.668081    5.283875
  23 H     1.0000    0     1.008   -8.291371   -0.840297    0.158334
  24 H     1.0000    0     1.008   -6.273298   -0.903755   -2.469306
  25 H     1.0000    0     1.008    7.084459   -2.483043   -4.873986
  26 H     1.0000    0     1.008    8.568494    0.475400   -5.061578
  27 H     1.0000    0     1.008    8.651318    2.878328   -1.341151
  28 H     1.0000    0     1.008   -2.716427   -4.607630    6.573597
  29 H     1.0000    0     1.008    6.816170    4.102511    2.786851
  30 H     1.0000    0     1.008   -6.661902   -5.768700   -2.499787
  31 H     1.0000    0     1.008    4.593819    2.251051   -7.178174
  32 H     1.0000    0     1.008    1.060835    1.756980    4.984832
  33 H     1.0000    0     1.008   -8.003315   -4.860384    2.715830
  34 H     1.0000    0     1.008  -11.078577   -6.905787   -1.983362
  35 H     1.0000    0     1.008  -11.735807   -3.833437   -0.466723
  36 H     1.0000    0     1.008    2.972418   -0.722972  -10.271846
  37 H     1.0000    0     1.008    4.575426   -3.355904   -8.638636

--------------------------------
INTERNAL COORDINATES (ANGSTROEM)
--------------------------------
 O      0   0   0     0.000000000000     0.00000000     0.00000000
 O      1   0   0     6.295280661711     0.00000000     0.00000000
 C      1   2   0     2.431789198746    63.84133299     0.00000000
 C      3   1   2     1.486403985929    93.10636335     0.57041823
 C      2   1   3     2.429735208156    47.68110206   324.52960968
 C      5   2   1     1.392993940657   146.29414938    24.93054028
 C      3   1   2     2.447383351848   117.52367198   179.82198441
 C      7   3   1     1.393337898127    28.72719476   181.76624370
 C      1   2   3     1.365703775049    92.96507277   359.19825321
 C      4   3   1     1.400713654016   121.73730289   304.27354925
 C      2   1   3     1.363769349545    24.33660553   355.78779891
 C      5   2   1     1.516092995638    93.10616147   207.11652136
 C      7   3   1     1.517428012639   149.43424093   180.41983150
 C      7   3   1     1.393985082243    89.09796917     1.43198719
 C     10   4   3     1.386611202705   120.98160102   181.39740153
 C     14   7   3     1.387621113025   121.10017090   359.45512658
 C     12   5   2     1.507332411937   114.31519093   300.91407289
 C     13   7   3     1.503995245746   113.40187069    63.73791009
 C     17  12   5     1.330041548797   124.97502536   126.54257659
 C     18  13   7     1.327794813459   125.19252095   237.28283883
 H      6   5   2     1.084158769258   118.51331568   181.18749863
 H      8   7   3     1.084208762302   119.15695331   180.98222229
 H     10   4   3     1.083586273054   119.79424131   359.01800257
 H     12   5   2     1.095728884387   110.09338094    64.13445451
 H     12   5   2     1.093809136667   107.96882396   179.93638002
 H     13   7   3     1.094390867808   110.19166584   301.02140580
 H     13   7   3     1.095015613269   108.38572826   184.84464043
 H     14   7   3     1.084132499982   119.72019631   179.56808845
 H     15  10   4     1.082414984142   121.02340579   178.76828790
 H     16  14   7     1.082465187369   121.18336221   181.05656233
 H     17  12   5     1.087074061888   115.75537725   306.59064944
 H     18  13   7     1.087408951279   115.55556602    56.95782116
 H      1   2   3     0.966752189350    17.33609238   160.27238042
 H      2   1   3     0.968104811797   129.75577386   313.82488875
 H     19  17  12     1.082672657940   121.58994878   179.36986049
 H     19  17  12     1.085414270975   121.64796273     0.35338089
 H     20  18  13     1.083021976003   121.64745449   180.29103079
 H     20  18  13     1.084934705235   121.60156246   359.94098239

---------------------------
INTERNAL COORDINATES (A.U.)
---------------------------
 O      0   0   0     0.000000000000     0.00000000     0.00000000
 O      1   0   0    11.896356386804     0.00000000     0.00000000
 C      1   2   0     4.595415601058    63.84133299     0.00000000
 C      3   1   2     2.808896457775    93.10636335     0.57041823
 C      2   1   3     4.591534121361    47.68110206   324.52960968
 C      5   2   1     2.632377054053   146.29414938    24.93054028
 C      3   1   2     4.624884279710   117.52367198   179.82198441
 C      7   3   1     2.633027039474    28.72719476   181.76624370
 C      1   2   3     2.580806114906    92.96507277   359.19825321
 C      4   3   1     2.646965198135   121.73730289   304.27354925
 C      2   1   3     2.577150580476    24.33660553   355.78779891
 C      5   2   1     2.865000555312    93.10616147   207.11652136
 C      7   3   1     2.867523371828   149.43424093   180.41983150
 C      7   3   1     2.634250040211    89.09796917     1.43198719
 C     10   4   3     2.620315427340   120.98160102   181.39740153
 C     14   7   3     2.622223881264   121.10017090   359.45512658
 C     12   5   2     2.848445451344   114.31519093   300.91407289
 C     13   7   3     2.842139121179   113.40187069    63.73791009
 C     17  12   5     2.513414273962   124.97502536   126.54257659
 C     18  13   7     2.509168559478   125.19252095   237.28283883
 H      6   5   2     2.048763159587   118.51331568   181.18749863
 H      8   7   3     2.048857632749   119.15695331   180.98222229
 H     10   4   3     2.047681298549   119.79424131   359.01800257
 H     12   5   2     2.070627508518   110.09338094    64.13445451
 H     12   5   2     2.066999711082   107.96882396   179.93638002
 H     13   7   3     2.068099023622   110.19166584   301.02140580
 H     13   7   3     2.069279621447   108.38572826   184.84464043
 H     14   7   3     2.048713517850   119.72019631   179.56808845
 H     15  10   4     2.045467883280   121.02340579   178.76828790
 H     16  14   7     2.045562753632   121.18336221   181.05656233
 H     17  12   5     2.054272264257   115.75537725   306.59064944
 H     18  13   7     2.054905113491   115.55556602    56.95782116
 H      1   2   3     1.826896877241    17.33609238   160.27238042
 H      2   1   3     1.829452963228   129.75577386   313.82488875
 H     19  17  12     2.045954816192   121.58994878   179.36986049
 H     19  17  12     2.051135713993   121.64796273     0.35338089
 H     20  18  13     2.046614931663   121.64745449   180.29103079
 H     20  18  13     2.050229466082   121.60156246   359.94098239

---------------------
BASIS SET INFORMATION
---------------------
There are 3 groups of distinct atoms

 Group   1 Type O   : 11s6p2d1f contracted to 5s3p2d1f pattern {62111/411/11/1}
 Group   2 Type C   : 11s6p2d1f contracted to 5s3p2d1f pattern {62111/411/11/1}
 Group   3 Type H   : 5s1p contracted to 3s1p pattern {311/1}

Atom   0O    basis set group =>   1
Atom   1O    basis set group =>   1
Atom   2C    basis set group =>   2
Atom   3C    basis set group =>   2
Atom   4C    basis set group =>   2
Atom   5C    basis set group =>   2
Atom   6C    basis set group =>   2
Atom   7C    basis set group =>   2
Atom   8C    basis set group =>   2
Atom   9C    basis set group =>   2
Atom  10C    basis set group =>   2
Atom  11C    basis set group =>   2
Atom  12C    basis set group =>   2
Atom  13C    basis set group =>   2
Atom  14C    basis set group =>   2
Atom  15C    basis set group =>   2
Atom  16C    basis set group =>   2
Atom  17C    basis set group =>   2
Atom  18C    basis set group =>   2
Atom  19C    basis set group =>   2
Atom  20H    basis set group =>   3
Atom  21H    basis set group =>   3
Atom  22H    basis set group =>   3
Atom  23H    basis set group =>   3
Atom  24H    basis set group =>   3
Atom  25H    basis set group =>   3
Atom  26H    basis set group =>   3
Atom  27H    basis set group =>   3
Atom  28H    basis set group =>   3
Atom  29H    basis set group =>   3
Atom  30H    basis set group =>   3
Atom  31H    basis set group =>   3
Atom  32H    basis set group =>   3
Atom  33H    basis set group =>   3
Atom  34H    basis set group =>   3
Atom  35H    basis set group =>   3
Atom  36H    basis set group =>   3
Atom  37H    basis set group =>   3
---------------------------------
AUXILIARY/J BASIS SET INFORMATION
---------------------------------
There are 3 groups of distinct atoms

 Group   1 Type O   : 12s5p4d2f1g contracted to 6s4p3d1f1g pattern {711111/2111/211/2/1}
 Group   2 Type C   : 12s5p4d2f1g contracted to 6s4p3d1f1g pattern {711111/2111/211/2/1}
 Group   3 Type H   : 5s2p1d contracted to 3s1p1d pattern {311/2/1}

Atom   0O    basis set group =>   1
Atom   1O    basis set group =>   1
Atom   2C    basis set group =>   2
Atom   3C    basis set group =>   2
Atom   4C    basis set group =>   2
Atom   5C    basis set group =>   2
Atom   6C    basis set group =>   2
Atom   7C    basis set group =>   2
Atom   8C    basis set group =>   2
Atom   9C    basis set group =>   2
Atom  10C    basis set group =>   2
Atom  11C    basis set group =>   2
Atom  12C    basis set group =>   2
Atom  13C    basis set group =>   2
Atom  14C    basis set group =>   2
Atom  15C    basis set group =>   2
Atom  16C    basis set group =>   2
Atom  17C    basis set group =>   2
Atom  18C    basis set group =>   2
Atom  19C    basis set group =>   2
Atom  20H    basis set group =>   3
Atom  21H    basis set group =>   3
Atom  22H    basis set group =>   3
Atom  23H    basis set group =>   3
Atom  24H    basis set group =>   3
Atom  25H    basis set group =>   3
Atom  26H    basis set group =>   3
Atom  27H    basis set group =>   3
Atom  28H    basis set group =>   3
Atom  29H    basis set group =>   3
Atom  30H    basis set group =>   3
Atom  31H    basis set group =>   3
Atom  32H    basis set group =>   3
Atom  33H    basis set group =>   3
Atom  34H    basis set group =>   3
Atom  35H    basis set group =>   3
Atom  36H    basis set group =>   3
Atom  37H    basis set group =>   3


           ************************************************************
           *        Program running with 20 parallel MPI-processes    *
           *              working on a common directory               *
           ************************************************************
------------------------------------------------------------------------------
                             ORCA STARTUP CALCULATIONS
                           -- RI-GTO INTEGRALS CHOSEN --
------------------------------------------------------------------------------
------------------------------------------------------------------------------
                   ___                                                        
                  /   \      - P O W E R E D   B Y -                         
                 /     \                                                     
                 |  |  |   _    _      __       _____    __    __             
                 |  |  |  | |  | |    /  \     |  _  \  |  |  /  |          
                  \  \/   | |  | |   /    \    | | | |  |  | /  /          
                 / \  \   | |__| |  /  /\  \   | |_| |  |  |/  /          
                |  |  |   |  __  | /  /__\  \  |    /   |      \           
                |  |  |   | |  | | |   __   |  |    \   |  |\   \          
                \     /   | |  | | |  |  |  |  | |\  \  |  | \   \       
                 \___/    |_|  |_| |__|  |__|  |_| \__\ |__|  \__/        
                                                                              
                      - O R C A' S   B I G   F R I E N D -                    
                                      &                                       
                       - I N T E G R A L  F E E D E R -                       
                                                                              
 v1 FN, 2020, v2 2021, v3 2022-2024                                           
------------------------------------------------------------------------------


----------------------
SHARK INTEGRAL PACKAGE
----------------------

Number of atoms                             ...     38
Number of basis functions                   ...    728
Number of shells                            ...    292
Maximum angular momentum                    ...      3
Integral batch strategy                     ... SHARK/LIBINT Hybrid
RI-J (if used) integral strategy            ... SPLIT-RIJ (Revised 2003 algorithm where possible)
Printlevel                                  ...      1
Contraction scheme used                     ... SEGMENTED contraction
Prescreening option                         ... SCHWARTZ
   Thresh                                   ... 2.500e-11
   Tcut                                     ... 2.500e-12
   Tpresel                                  ... 2.500e-12 
Coulomb Range Separation                    ... NOT USED
Exchange Range Separation                   ... NOT USED
Multipole approximations                    ... NOT USED
Finite Nucleus Model                        ... NOT USED
CABS basis                                  ... NOT available
Auxiliary Coulomb fitting basis             ... AVAILABLE
   # of basis functions in Aux-J            ...   1178
   # of shells in Aux-J                     ...    390
   Maximum angular momentum in Aux-J        ...      4
Auxiliary J/K fitting basis                 ... NOT available
Auxiliary Correlation fitting basis         ... NOT available
Auxiliary 'external' fitting basis          ... NOT available

Checking pre-screening integrals            ... done (  0.0 sec) Dimension = 292
Check shell pair data                       ... done (  0.0 sec)
Shell pair information
Shell pair cut-off parameter TPreSel        ...   2.5e-12
Total number of shell pairs                 ...     42778
Shell pairs after pre-screening             ...     29564
Total number of primitive shell pairs       ...    129780
Primitive shell pairs kept                  ...     60530
          la=0 lb=0:   7974 shell pairs
          la=1 lb=0:   8632 shell pairs
          la=1 lb=1:   2354 shell pairs
          la=2 lb=0:   4131 shell pairs
          la=2 lb=1:   2264 shell pairs
          la=2 lb=2:    561 shell pairs
          la=3 lb=0:   1937 shell pairs
          la=3 lb=1:   1079 shell pairs
          la=3 lb=2:    503 shell pairs
          la=3 lb=3:    129 shell pairs

Calculating one electron integrals          ... done (  0.0 sec)
Calculating RI/J V-Matrix + Cholesky decomp.... done (  0.1 sec)
Calculating Nuclear repulsion               ... done (  0.0 sec) ENN=   1414.253759126793 Eh

Diagonalization of the overlap matrix:
Smallest eigenvalue                        ... 6.551e-06
Time for diagonalization                   ...    0.063 sec
Threshold for overlap eigenvalues          ... 1.000e-07
Number of eigenvalues below threshold      ... 0
Time for construction of square roots      ...    0.028 sec
Total time needed                          ...    0.095 sec

-------------------
DFT GRID GENERATION
-------------------

General Integration Accuracy     IntAcc      ... 4.388
Radial Grid Type                 RadialGrid  ... OptM3 with GC (2021)
Angular Grid (max. ang.)         AngularGrid ... 4 (Lebedev-302)
Angular grid pruning method      GridPruning ... 4 (adaptive)
Weight generation scheme         WeightScheme... mBecke (2022)
Basis function cutoff            BFCut       ... 1.0000e-11
Integration weight cutoff        WCut        ... 1.0000e-14
Partially contracted basis set               ... off
Rotationally invariant grid construction     ... off
Angular grids for H and He will be reduced by one unit

Total number of grid points                  ...   177196
Total number of batches                      ...     2787
Average number of points per batch           ...       63
Average number of grid points per atom       ...     4663

--------------------
COSX GRID GENERATION
--------------------

GRIDX 1
-------
General Integration Accuracy     IntAcc      ... 3.816
Radial Grid Type                 RadialGrid  ... OptM3 with GC (2021)
Angular Grid (max. ang.)         AngularGrid ... 1 (Lebedev-50)
Angular grid pruning method      GridPruning ... 4 (adaptive)
Weight generation scheme         WeightScheme... mBecke (2022)
Basis function cutoff            BFCut       ... 1.0000e-11
Integration weight cutoff        WCut        ... 1.0000e-14
Partially contracted basis set               ... on
Rotationally invariant grid construction     ... off
Angular grids for H and He will be reduced by one unit

Total number of grid points                  ...    22508
Total number of batches                      ...      198
Average number of points per batch           ...      113
Average number of grid points per atom       ...      592
UseSFitting                                  ... on

GRIDX 2
-------
General Integration Accuracy     IntAcc      ... 4.020
Radial Grid Type                 RadialGrid  ... OptM3 with GC (2021)
Angular Grid (max. ang.)         AngularGrid ... 2 (Lebedev-110)
Angular grid pruning method      GridPruning ... 4 (adaptive)
Weight generation scheme         WeightScheme... mBecke (2022)
Basis function cutoff            BFCut       ... 1.0000e-11
Integration weight cutoff        WCut        ... 1.0000e-14
Partially contracted basis set               ... on
Rotationally invariant grid construction     ... off
Angular grids for H and He will be reduced by one unit

Total number of grid points                  ...    48604
Total number of batches                      ...      402
Average number of points per batch           ...      120
Average number of grid points per atom       ...     1279
UseSFitting                                  ... on

GRIDX 3
-------
General Integration Accuracy     IntAcc      ... 4.338
Radial Grid Type                 RadialGrid  ... OptM3 with GC (2021)
Angular Grid (max. ang.)         AngularGrid ... 3 (Lebedev-194)
Angular grid pruning method      GridPruning ... 4 (adaptive)
Weight generation scheme         WeightScheme... mBecke (2022)
Basis function cutoff            BFCut       ... 1.0000e-11
Integration weight cutoff        WCut        ... 1.0000e-14
Partially contracted basis set               ... on
Rotationally invariant grid construction     ... off
Angular grids for H and He will be reduced by one unit

Total number of grid points                  ...   106262
Total number of batches                      ...      849
Average number of points per batch           ...      125
Average number of grid points per atom       ...     2796
UseSFitting                                  ... on
Initializing property integral containers    ... done (  0.0 sec)

SHARK setup successfully completed in   2.1 seconds

Maximum memory used throughout the entire STARTUP-calculation: 70.4 MB


           ************************************************************
           *        Program running with 20 parallel MPI-processes    *
           *              working on a common directory               *
           ************************************************************
-------------------------------------------------------------------------------
                                 ORCA GUESS
                   Start orbitals & Density for SCF / CASSCF
-------------------------------------------------------------------------------

------------
SCF SETTINGS
------------
Hamiltonian:
 Density Functional     Method          .... DFT(GTOs)
 Exchange Functional    Exchange        .... B88
   X-Alpha parameter    XAlpha          ....  0.666667
   Becke's b parameter  XBeta           ....  0.004200
 Correlation Functional Correlation     .... LYP
 LDA part of GGA corr.  LDAOpt          .... VWN-5
 Gradients option       PostSCFGGA      .... off
 Hybrid DFT is turned on
   Fraction HF Exchange ScalHFX         ....  0.200000
   Scaling of DF-GGA-X  ScalDFX         ....  0.720000
   Scaling of DF-GGA-C  ScalDFC         ....  0.810000
   Scaling of DF-LDA-C  ScalLDAC        ....  1.000000
   Perturbative correction              ....  0.000000
   NL short-range parameter             ....  4.800000
 RI-approximation to the Coulomb term is turned on
   Number of AuxJ basis functions       .... 1178
   RIJ-COSX (HFX calculated with COS-X)).... on


General Settings:
 Integral files         IntName         .... honokiol2
 Hartree-Fock type      HFTyp           .... RHF
 Total Charge           Charge          ....    0
 Multiplicity           Mult            ....    1
 Number of Electrons    NEL             ....  142
 Basis Dimension        Dim             ....  728
 Nuclear Repulsion      ENuc            ....   1414.2537591268 Eh

Convergence Acceleration:
 AO-DIIS                CNVDIIS         .... on
   Start iteration      DIISMaxIt       ....    12
   Startup error        DIISStart       ....  0.200000
   # of expansion vecs  DIISMaxEq       ....     5
   Bias factor          DIISBfac        ....   1.050
   Max. coefficient     DIISMaxC        ....  10.000
 MO-DIIS                CNVKDIIS        .... off
 Trust-Rad. Augm. Hess. CNVTRAH         .... auto
   Auto Start mean grad. ratio tolernc. ....  1.125000
   Auto Start start iteration           ....    50
   Auto Start num. interpolation iter.  ....    10
   Max. Number of Micro iterations      ....    24
   Max. Number of Macro iterations      .... Maxiter - #DIIS iter
   Number of Davidson start vectors     ....     2
   Converg. threshold    (grad. norm)   ....   1.000e-05
   Grad. Scal. Fac. for Micro threshold ....   0.100
   Minimum threshold for Micro iter.    ....   1.000e-02
   NR start threshold (gradient norm)   ....   1.000e-04
   Initial trust radius                 ....   0.400
   Minimum AH scaling param. (alpha)    ....   1.000
   Maximum AH scaling param. (alpha)    .... 1000.000
   Quad. conv. algorithm                .... NR
   White noise on init. David. guess    .... on
   Maximum white noise                  ....   0.010
   Pseudo random numbers                .... off
   Inactive MOs                         .... canonical
   Orbital update algorithm             .... Taylor
   Preconditioner                       .... Diag
   Full preconditioner red. dimension   ....   250
 SOSCF                  CNVSOSCF        .... on
   Start iteration      SOSCFMaxIt      ....   150
   Startup grad/error   SOSCFStart      ....  0.003300
   Hessian update       SOSCFHessUp     .... L-BFGS
 Level Shifting         CNVShift        .... on
   Level shift para.    LevelShift      ....    0.2500
   Turn off err/grad.   ShiftErr        ....    0.0010
 Zerner damping         CNVZerner       .... off
 Static damping         CNVDamp         .... on
   Fraction old density DampFac         ....    0.7000
   Max. Damping (<1)    DampMax         ....    0.9800
   Min. Damping (>=0)   DampMin         ....    0.0000
   Turn off err/grad.   DampErr         ....    0.1000

SCF Procedure:
 Maximum # iterations   MaxIter         ....   125
 SCF integral mode      SCFMode         .... Direct
   Integral package                     .... SHARK and LIBINT hybrid scheme
 Reset frequency        DirectResetFreq ....    20
 Integral Threshold     Thresh          ....  2.500e-11 Eh
 Primitive CutOff       TCut            ....  2.500e-12 Eh

Convergence Tolerance:
 Convergence Check Mode ConvCheckMode   .... Total+1el-Energy
 Convergence forced     ConvForced      .... 0
 Energy Change          TolE            ....  1.000e-08 Eh
 1-El. energy change                    ....  1.000e-05 Eh
 Orbital Gradient       TolG            ....  1.000e-05
 Orbital Rotation angle TolX            ....  1.000e-05
 DIIS Error             TolErr          ....  5.000e-07

------------------------------
INITIAL GUESS: MODEL POTENTIAL
------------------------------
Loading Hartree-Fock densities                     ... done
Calculating cut-offs                               ... done
Initializing the effective Hamiltonian             ... done
Setting up the integral package (SHARK)            ... done
Starting the Coulomb interaction                   ... done (   0.1 sec)
Making the grid                                    ... done (   0.2 sec)
Mapping shells                                     ... done
Starting the XC term evaluation                    ... done (   0.1 sec)
  promolecular density results
     # of electrons  =    141.998838256
     EX              =   -114.323588124
     EC              =     -4.775522046
     EX+EC           =   -119.099110170
Transforming the Hamiltonian                       ... done (   0.0 sec)
Diagonalizing the Hamiltonian                      ... done (   0.1 sec)
Back transforming the eigenvectors                 ... done (   0.0 sec)
Now organizing SCF variables                       ... done
                      ------------------
                      INITIAL GUESS DONE (   0.5 sec)
                      ------------------
             **** ENERGY FILE WAS UPDATED (honokiol2.en.tmp) ****
Finished Guess after   1.2 sec
Maximum memory used throughout the entire GUESS-calculation: 54.9 MB


           ************************************************************
           *        Program running with 20 parallel MPI-processes    *
           *              working on a common directory               *
           ************************************************************

-------------------------------------------------------------------------------------------
                                      ORCA LEAN-SCF
                              memory conserving SCF solver
-------------------------------------------------------------------------------------------

----------------------------------------D-I-I-S--------------------------------------------
Iteration    Energy (Eh)           Delta-E    RMSDP     MaxDP     DIISErr   Damp  Time(sec)
-------------------------------------------------------------------------------------------
               ***  Starting incremental Fock matrix formation  ***
    1    -846.4262138234428221     0.00e+00  1.48e-03  1.27e-01  2.30e-01  0.700   3.5
    2    -846.6699505880712877    -2.44e-01  1.39e-03  1.45e-01  1.02e-01  0.700   2.1
                               ***Turning on AO-DIIS***
    3    -846.7758229392632074    -1.06e-01  5.17e-04  4.38e-02  3.80e-02  0.700   1.9
    4    -846.8368997397153635    -6.11e-02  7.40e-04  4.22e-02  2.13e-02  0.000   1.8
    5    -846.9677859887517570    -1.31e-01  3.28e-04  3.67e-02  4.49e-03  0.000   1.9
                              *** Initializing SOSCF ***
---------------------------------------S-O-S-C-F--------------------------------------
Iteration    Energy (Eh)           Delta-E    RMSDP     MaxDP     MaxGrad    Time(sec)
--------------------------------------------------------------------------------------
    6    -846.9683908203116971    -6.05e-04  1.16e-04  1.14e-02  1.23e-03     1.9
               *** Restarting incremental Fock matrix formation ***
    7    -846.9684252832278162    -3.45e-05  8.87e-05  8.25e-03  2.75e-04     3.4
    8    -846.9684193277219038     5.96e-06  1.62e-05  1.36e-03  6.14e-04     2.5
    9    -846.9684306116866992    -1.13e-05  1.26e-05  1.02e-03  4.10e-05     2.2
   10    -846.9684304850322860     1.27e-07  4.78e-06  5.30e-04  4.66e-05     2.1
   11    -846.9684308031849014    -3.18e-07  3.06e-06  2.06e-04  1.49e-05     1.9
   12    -846.9684307926779638     1.05e-08  1.17e-06  4.82e-05  1.87e-05     1.8
   13    -846.9684308009116194    -8.23e-09  2.61e-06  2.31e-04  2.71e-06     1.7
                 **** Energy Check signals convergence ****

               *****************************************************
               *                     SUCCESS                       *
               *           SCF CONVERGED AFTER  13 CYCLES          *
               *****************************************************

Recomputing exchange energy using gridx3       ... done (    5.290 sec)
Old exchange energy                            :    -23.254248577 Eh
New exchange energy                            :    -23.254253447 Eh
Exchange energy change after final integration :     -0.000004871 Eh
Total energy after final integration           :   -846.968435671 Eh
             **** ENERGY FILE WAS UPDATED (honokiol2.en.tmp) ****

----------------
TOTAL SCF ENERGY
----------------

Total Energy       :       -846.96843567143128 Eh          -23047.18283 eV

Components:
Nuclear Repulsion  :       1414.25375912679306 Eh           38483.80126 eV
Electronic Energy  :      -2261.22218992770468 Eh          -61530.98396 eV
One Electron Energy:      -3956.34366005711399 Eh         -107657.58420 eV
Two Electron Energy:       1695.12147012940932 Eh           46126.60023 eV

Virial components:
Potential Energy   :      -1690.11214702913912 Eh          -45990.28962 eV
Kinetic Energy     :        843.14371135770784 Eh           22943.10679 eV
Virial Ratio       :          2.00453626619306

DFT components:
N(Alpha)           :       71.000065313619 electrons
N(Beta)            :       71.000065313619 electrons
N(Total)           :      142.000130627237 electrons
E(X)               :      -92.380171970064 Eh       
E(C)               :       -5.639872762251 Eh       
E(XC)              :      -98.020044732314 Eh       

---------------
SCF CONVERGENCE
---------------

  Last Energy change         ...    8.2337e-09  Tolerance :   1.0000e-08
  Last MAX-Density change    ...    2.3096e-04  Tolerance :   1.0000e-07
  Last RMS-Density change    ...    2.6052e-06  Tolerance :   5.0000e-09
  Last DIIS Error            ...    1.2308e-03  Tolerance :   5.0000e-07
  Last Orbital Gradient      ...    2.7053e-06  Tolerance :   1.0000e-05
  Last Orbital Rotation      ...    1.1608e-05  Tolerance :   1.0000e-05


----------------
ORBITAL ENERGIES
----------------

  NO   OCC          E(Eh)            E(eV) 
   0   2.0000     -19.154859      -521.2302 
   1   2.0000     -19.148147      -521.0476 
   2   2.0000     -10.238772      -278.6111 
   3   2.0000     -10.229038      -278.3463 
   4   2.0000     -10.198188      -277.5068 
   5   2.0000     -10.195339      -277.4293 
   6   2.0000     -10.190280      -277.2916 
   7   2.0000     -10.185757      -277.1685 
   8   2.0000     -10.184924      -277.1459 
   9   2.0000     -10.181169      -277.0437 
  10   2.0000     -10.180533      -277.0264 
  11   2.0000     -10.179972      -277.0111 
  12   2.0000     -10.174742      -276.8688 
  13   2.0000     -10.174248      -276.8554 
  14   2.0000     -10.173740      -276.8415 
  15   2.0000     -10.172232      -276.8005 
  16   2.0000     -10.168722      -276.7050 
  17   2.0000     -10.168648      -276.7030 
  18   2.0000     -10.163725      -276.5690 
  19   2.0000     -10.160517      -276.4817 
  20   2.0000      -1.063034       -28.9266 
  21   2.0000      -1.055736       -28.7280 
  22   2.0000      -0.872272       -23.7357 
  23   2.0000      -0.853236       -23.2177 
  24   2.0000      -0.822316       -22.3763 
  25   2.0000      -0.798934       -21.7401 
  26   2.0000      -0.775957       -21.1149 
  27   2.0000      -0.764978       -20.8161 
  28   2.0000      -0.743057       -20.2196 
  29   2.0000      -0.723504       -19.6875 
  30   2.0000      -0.697176       -18.9711 
  31   2.0000      -0.676319       -18.4036 
  32   2.0000      -0.635654       -17.2970 
  33   2.0000      -0.621166       -16.9028 
  34   2.0000      -0.596811       -16.2401 
  35   2.0000      -0.589117       -16.0307 
  36   2.0000      -0.578231       -15.7345 
  37   2.0000      -0.554978       -15.1017 
  38   2.0000      -0.551185       -14.9985 
  39   2.0000      -0.539067       -14.6687 
  40   2.0000      -0.499282       -13.5862 
  41   2.0000      -0.493507       -13.4290 
  42   2.0000      -0.485179       -13.2024 
  43   2.0000      -0.474887       -12.9223 
  44   2.0000      -0.461844       -12.5674 
  45   2.0000      -0.456021       -12.4090 
  46   2.0000      -0.445293       -12.1170 
  47   2.0000      -0.433730       -11.8024 
  48   2.0000      -0.431638       -11.7455 
  49   2.0000      -0.428033       -11.6474 
  50   2.0000      -0.421264       -11.4632 
  51   2.0000      -0.417817       -11.3694 
  52   2.0000      -0.409189       -11.1346 
  53   2.0000      -0.405630       -11.0377 
  54   2.0000      -0.399422       -10.8688 
  55   2.0000      -0.394258       -10.7283 
  56   2.0000      -0.376873       -10.2552 
  57   2.0000      -0.369615       -10.0577 
  58   2.0000      -0.367324        -9.9954 
  59   2.0000      -0.358680        -9.7602 
  60   2.0000      -0.354147        -9.6368 
  61   2.0000      -0.349802        -9.5186 
  62   2.0000      -0.339662        -9.2427 
  63   2.0000      -0.332409        -9.0453 
  64   2.0000      -0.323748        -8.8096 
  65   2.0000      -0.287557        -7.8248 
  66   2.0000      -0.265169        -7.2156 
  67   2.0000      -0.261196        -7.1075 
  68   2.0000      -0.259209        -7.0534 
  69   2.0000      -0.230220        -6.2646 
  70   2.0000      -0.212569        -5.7843 
  71   0.0000      -0.030905        -0.8410 
  72   0.0000      -0.026619        -0.7243 
  73   0.0000      -0.009214        -0.2507 
  74   0.0000      -0.001817        -0.0494 
  75   0.0000       0.002565         0.0698 
  76   0.0000       0.023344         0.6352 
  77   0.0000       0.035313         0.9609 
  78   0.0000       0.050043         1.3617 
  79   0.0000       0.050994         1.3876 
  80   0.0000       0.060651         1.6504 
  81   0.0000       0.065069         1.7706 
*Only the first 10 virtual orbitals were printed.

                    ********************************
                    * MULLIKEN POPULATION ANALYSIS *
                    ********************************

-----------------------
MULLIKEN ATOMIC CHARGES
-----------------------
   0 O :   -0.395599
   1 O :   -0.398214
   2 C :    0.154770
   3 C :    0.056778
   4 C :    0.085666
   5 C :   -0.276862
   6 C :    0.123393
   7 C :   -0.256765
   8 C :    0.194190
   9 C :   -0.248894
  10 C :    0.253754
  11 C :   -0.248141
  12 C :   -0.191554
  13 C :   -0.138521
  14 C :   -0.197448
  15 C :   -0.227104
  16 C :   -0.148208
  17 C :   -0.088693
  18 C :   -0.263337
  19 C :   -0.265811
  20 H :    0.122776
  21 H :    0.121384
  22 H :    0.144490
  23 H :    0.129144
  24 H :    0.117534
  25 H :    0.101475
  26 H :    0.105736
  27 H :    0.095040
  28 H :    0.111781
  29 H :    0.105021
  30 H :    0.117787
  31 H :    0.101528
  32 H :    0.322101
  33 H :    0.322992
  34 H :    0.124664
  35 H :    0.123303
  36 H :    0.108624
  37 H :    0.101218
Sum of atomic charges:    0.0000000

--------------------------------
MULLIKEN REDUCED ORBITAL CHARGES
--------------------------------
  0 O s       :     3.765752  s :     3.765752
      pz      :     1.475554  p :     4.597258
      px      :     1.399441
      py      :     1.722263
      dz2     :     0.010243  d :     0.030897
      dxz     :     0.004148
      dyz     :     0.006734
      dx2y2   :     0.004102
      dxy     :     0.005670
      f0      :     0.000247  f :     0.001692
      f+1     :     0.000387
      f-1     :     0.000258
      f+2     :     0.000195
      f-2     :     0.000167
      f+3     :     0.000073
      f-3     :     0.000364

  1 O s       :     3.764439  s :     3.764439
      pz      :     1.538413  p :     4.601391
      px      :     1.331614
      py      :     1.731364
      dz2     :     0.005279  d :     0.030685
      dxz     :     0.012311
      dyz     :     0.003842
      dx2y2   :     0.004467
      dxy     :     0.004786
      f0      :     0.000021  f :     0.001699
      f+1     :     0.000381
      f-1     :     0.000046
      f+2     :     0.000313
      f-2     :     0.000216
      f+3     :     0.000324
      f-3     :     0.000399

  2 C s       :     3.234270  s :     3.234270
      pz      :     0.826283  p :     2.494884
      px      :     0.752378
      py      :     0.916223
      dz2     :     0.021750  d :     0.106452
      dxz     :     0.025251
      dyz     :     0.019146
      dx2y2   :     0.020614
      dxy     :     0.019691
      f0      :     0.001580  f :     0.009624
      f+1     :     0.001391
      f-1     :     0.001391
      f+2     :     0.001512
      f-2     :     0.001465
      f+3     :     0.001167
      f-3     :     0.001118

  3 C s       :     3.276155  s :     3.276155
      pz      :     0.876281  p :     2.537385
      px      :     0.735477
      py      :     0.925626
      dz2     :     0.027290  d :     0.119957
      dxz     :     0.026619
      dyz     :     0.019547
      dx2y2   :     0.023333
      dxy     :     0.023168
      f0      :     0.001472  f :     0.009725
      f+1     :     0.002170
      f-1     :     0.000689
      f+2     :     0.001286
      f-2     :     0.001781
      f+3     :     0.001144
      f-3     :     0.001183

  4 C s       :     3.207737  s :     3.207737
      pz      :     0.834068  p :     2.579486
      px      :     0.826822
      py      :     0.918596
      dz2     :     0.029434  d :     0.117481
      dxz     :     0.024859
      dyz     :     0.019234
      dx2y2   :     0.021795
      dxy     :     0.022158
      f0      :     0.001510  f :     0.009630
      f+1     :     0.001946
      f-1     :     0.000771
      f+2     :     0.001514
      f-2     :     0.001546
      f+3     :     0.001432
      f-3     :     0.000911

  5 C s       :     3.249610  s :     3.249610
      pz      :     0.998632  p :     2.933875
      px      :     0.957334
      py      :     0.977909
      dz2     :     0.016552  d :     0.085759
      dxz     :     0.018549
      dyz     :     0.011262
      dx2y2   :     0.016591
      dxy     :     0.022805
      f0      :     0.000629  f :     0.007618
      f+1     :     0.001530
      f-1     :     0.000748
      f+2     :     0.001073
      f-2     :     0.001240
      f+3     :     0.001389
      f-3     :     0.001009

  6 C s       :     3.172064  s :     3.172064
      pz      :     0.844842  p :     2.570565
      px      :     0.832796
      py      :     0.892926
      dz2     :     0.027900  d :     0.124181
      dxz     :     0.029091
      dyz     :     0.020327
      dx2y2   :     0.026935
      dxy     :     0.019928
      f0      :     0.001361  f :     0.009798
      f+1     :     0.001763
      f-1     :     0.001433
      f+2     :     0.001530
      f-2     :     0.001334
      f+3     :     0.001447
      f-3     :     0.000929

  7 C s       :     3.272633  s :     3.272633
      pz      :     0.943160  p :     2.895410
      px      :     0.961742
      py      :     0.990508
      dz2     :     0.016511  d :     0.081158
      dxz     :     0.019044
      dyz     :     0.018765
      dx2y2   :     0.011603
      dxy     :     0.015235
      f0      :     0.001449  f :     0.007564
      f+1     :     0.001205
      f-1     :     0.000812
      f+2     :     0.000905
      f-2     :     0.001419
      f+3     :     0.001247
      f-3     :     0.000528

  8 C s       :     3.065611  s :     3.065611
      pz      :     0.749343  p :     2.554561
      px      :     0.913983
      py      :     0.891236
      dz2     :     0.040104  d :     0.170031
      dxz     :     0.034903
      dyz     :     0.038542
      dx2y2   :     0.031072
      dxy     :     0.025410
      f0      :     0.003154  f :     0.015607
      f+1     :     0.002603
      f-1     :     0.002649
      f+2     :     0.002283
      f-2     :     0.002034
      f+3     :     0.001741
      f-3     :     0.001142

  9 C s       :     3.268969  s :     3.268969
      pz      :     0.935326  p :     2.887774
      px      :     0.992953
      py      :     0.959495
      dz2     :     0.015835  d :     0.084880
      dxz     :     0.028270
      dyz     :     0.011080
      dx2y2   :     0.018103
      dxy     :     0.011592
      f0      :     0.001395  f :     0.007270
      f+1     :     0.001133
      f-1     :     0.000682
      f+2     :     0.001229
      f-2     :     0.000986
      f+3     :     0.001264
      f-3     :     0.000581

 10 C s       :     3.046912  s :     3.046912
      pz      :     0.890475  p :     2.512558
      px      :     0.745184
      py      :     0.876899
      dz2     :     0.033122  d :     0.171219
      dxz     :     0.046746
      dyz     :     0.024633
      dx2y2   :     0.032792
      dxy     :     0.033925
      f0      :     0.002086  f :     0.015557
      f+1     :     0.003127
      f-1     :     0.000876
      f+2     :     0.001867
      f-2     :     0.002930
      f+3     :     0.002710
      f-3     :     0.001961

 11 C s       :     3.283997  s :     3.283997
      pz      :     0.999254  p :     2.878383
      px      :     0.961501
      py      :     0.917629
      dz2     :     0.011728  d :     0.080338
      dxz     :     0.014966
      dyz     :     0.019541
      dx2y2   :     0.013361
      dxy     :     0.020743
      f0      :     0.000323  f :     0.005423
      f+1     :     0.000872
      f-1     :     0.000480
      f+2     :     0.000813
      f-2     :     0.001266
      f+3     :     0.000666
      f-3     :     0.001002

 12 C s       :     3.246779  s :     3.246779
      pz      :     0.876691  p :     2.856993
      px      :     0.955675
      py      :     1.024626
      dz2     :     0.031682  d :     0.082257
      dxz     :     0.015197
      dyz     :     0.015103
      dx2y2   :     0.012025
      dxy     :     0.008252
      f0      :     0.001082  f :     0.005524
      f+1     :     0.001402
      f-1     :     0.000839
      f+2     :     0.000696
      f-2     :     0.000670
      f+3     :     0.000105
      f-3     :     0.000730

 13 C s       :     3.208620  s :     3.208620
      pz      :     0.938798  p :     2.840110
      px      :     0.947198
      py      :     0.954114
      dz2     :     0.023746  d :     0.082371
      dxz     :     0.017545
      dyz     :     0.018490
      dx2y2   :     0.012503
      dxy     :     0.010087
      f0      :     0.001408  f :     0.007420
      f+1     :     0.000925
      f-1     :     0.001257
      f+2     :     0.001247
      f-2     :     0.001185
      f+3     :     0.000515
      f-3     :     0.000884

 14 C s       :     3.265745  s :     3.265745
      pz      :     0.978158  p :     2.850057
      px      :     0.908627
      py      :     0.963272
      dz2     :     0.012352  d :     0.074074
      dxz     :     0.017233
      dyz     :     0.010200
      dx2y2   :     0.013977
      dxy     :     0.020311
      f0      :     0.000596  f :     0.007573
      f+1     :     0.001482
      f-1     :     0.000786
      f+2     :     0.001061
      f-2     :     0.001280
      f+3     :     0.001374
      f-3     :     0.000994

 15 C s       :     3.276647  s :     3.276647
      pz      :     0.947375  p :     2.870392
      px      :     0.945568
      py      :     0.977449
      dz2     :     0.015469  d :     0.072494
      dxz     :     0.015381
      dyz     :     0.016361
      dx2y2   :     0.013101
      dxy     :     0.012182
      f0      :     0.001379  f :     0.007571
      f+1     :     0.001173
      f-1     :     0.000845
      f+2     :     0.000970
      f-2     :     0.001418
      f+3     :     0.001253
      f-3     :     0.000533

 16 C s       :     3.244334  s :     3.244334
      pz      :     0.988002  p :     2.817693
      px      :     0.941916
      py      :     0.887775
      dz2     :     0.004265  d :     0.079404
      dxz     :     0.019471
      dyz     :     0.012849
      dx2y2   :     0.014676
      dxy     :     0.028144
      f0      :     0.000883  f :     0.006776
      f+1     :     0.000451
      f-1     :     0.000508
      f+2     :     0.001087
      f-2     :     0.000949
      f+3     :     0.001362
      f-3     :     0.001536

 17 C s       :     3.212385  s :     3.212385
      pz      :     0.919214  p :     2.790706
      px      :     0.914754
      py      :     0.956738
      dz2     :     0.027204  d :     0.078577
      dxz     :     0.014322
      dyz     :     0.008305
      dx2y2   :     0.019112
      dxy     :     0.009633
      f0      :     0.001167  f :     0.007025
      f+1     :     0.001023
      f-1     :     0.001098
      f+2     :     0.001376
      f-2     :     0.001012
      f+3     :     0.000691
      f-3     :     0.000658

 18 C s       :     3.266881  s :     3.266881
      pz      :     1.004270  p :     2.949138
      px      :     0.911157
      py      :     1.033711
      dz2     :     0.002724  d :     0.042599
      dxz     :     0.012440
      dyz     :     0.002462
      dx2y2   :     0.006436
      dxy     :     0.018537
      f0      :     0.000835  f :     0.004720
      f+1     :     0.000305
      f-1     :     0.000208
      f+2     :     0.000683
      f-2     :     0.000781
      f+3     :     0.001048
      f-3     :     0.000860

 19 C s       :     3.262133  s :     3.262133
      pz      :     0.971523  p :     2.957549
      px      :     1.022939
      py      :     0.963088
      dz2     :     0.012057  d :     0.041275
      dxz     :     0.009799
      dyz     :     0.003144
      dx2y2   :     0.012435
      dxy     :     0.003841
      f0      :     0.000621  f :     0.004853
      f+1     :     0.000678
      f-1     :     0.000832
      f+2     :     0.000991
      f-2     :     0.000688
      f+3     :     0.000463
      f-3     :     0.000580

[...]
      f+2     :     0.005884
      f-2     :     0.007501
      f+3     :     0.006992
      f-3     :     0.005519

 15 C s       :     2.758892  s :     2.758892
      pz      :     1.009678  p :     2.951294
      px      :     0.993863
      py      :     0.947752
      dz2     :     0.074625  d :     0.366094
      dxz     :     0.100539
      dyz     :     0.076457
      dx2y2   :     0.053522
      dxy     :     0.060951
      f0      :     0.007664  f :     0.042983
      f+1     :     0.007914
      f-1     :     0.006029
      f+2     :     0.005996
      f-2     :     0.005139
      f+3     :     0.005714
      f-3     :     0.004527

 16 C s       :     2.798853  s :     2.798853
      pz      :     0.889266  p :     2.956388
      px      :     1.085160
      py      :     0.981962
      dz2     :     0.027216  d :     0.399565
      dxz     :     0.074799
      dyz     :     0.053641
      dx2y2   :     0.100627
      dxy     :     0.143282
      f0      :     0.003781  f :     0.041394
      f+1     :     0.003913
      f-1     :     0.003301
      f+2     :     0.006904
      f-2     :     0.003732
      f+3     :     0.008930
      f-3     :     0.010834

 17 C s       :     2.796555  s :     2.796555
      pz      :     0.990826  p :     2.952407
      px      :     0.928212
      py      :     1.033368
      dz2     :     0.113691  d :     0.396919
      dxz     :     0.071437
      dyz     :     0.073773
      dx2y2   :     0.089372
      dxy     :     0.048645
      f0      :     0.005791  f :     0.041822
      f+1     :     0.005935
      f-1     :     0.007264
      f+2     :     0.007651
      f-2     :     0.007135
      f+3     :     0.003788
      f-3     :     0.004260

 18 C s       :     2.858015  s :     2.858015
      pz      :     0.970574  p :     3.088038
      px      :     1.097466
      py      :     1.019998
      dz2     :     0.014400  d :     0.241621
      dxz     :     0.051398
      dyz     :     0.010881
      dx2y2   :     0.063108
      dxy     :     0.101835
      f0      :     0.003537  f :     0.027982
      f+1     :     0.003075
      f-1     :     0.000879
      f+2     :     0.004397
      f-2     :     0.002704
      f+3     :     0.006800
      f-3     :     0.006590

 19 C s       :     2.855548  s :     2.855548
      pz      :     1.040678  p :     3.097633
      px      :     0.998330
      py      :     1.058624
      dz2     :     0.057324  d :     0.239688
      dxz     :     0.047068
      dyz     :     0.045026
      dx2y2   :     0.065858
      dxy     :     0.024413
      f0      :     0.003127  f :     0.028244
      f+1     :     0.003822
      f-1     :     0.005187
      f+2     :     0.004915
      f-2     :     0.005398
      f+3     :     0.002479
      f-3     :     0.003317

 20 H s       :     0.788412  s :     0.788412
      pz      :     0.029649  p :     0.058931
      px      :     0.010726
      py      :     0.018555

 21 H s       :     0.787787  s :     0.787787
      pz      :     0.018904  p :     0.059003
      px      :     0.017186
      py      :     0.022913

 22 H s       :     0.788514  s :     0.788514
      pz      :     0.019711  p :     0.059190
      px      :     0.026319
      py      :     0.013160

 23 H s       :     0.791605  s :     0.791605
      pz      :     0.017068  p :     0.057883
      px      :     0.022694
      py      :     0.018121

 24 H s       :     0.788514  s :     0.788514
      pz      :     0.026196  p :     0.057895
      px      :     0.013806
      py      :     0.017893

 25 H s       :     0.796567  s :     0.796567
      pz      :     0.011767  p :     0.057521
      px      :     0.012878
      py      :     0.032876

 26 H s       :     0.795568  s :     0.795568
      pz      :     0.012029  p :     0.057323
      px      :     0.028408
      py      :     0.016886

 27 H s       :     0.798187  s :     0.798187
      pz      :     0.013204  p :     0.058140
      px      :     0.028782
      py      :     0.016154

 28 H s       :     0.790995  s :     0.790995
      pz      :     0.029583  p :     0.059359
      px      :     0.010871
      py      :     0.018906

 29 H s       :     0.793205  s :     0.793205
      pz      :     0.019512  p :     0.059292
      px      :     0.016485
      py      :     0.023295

 30 H s       :     0.797035  s :     0.797035
      pz      :     0.016857  p :     0.058814
      px      :     0.019957
      py      :     0.022000

 31 H s       :     0.802331  s :     0.802331
      pz      :     0.011746  p :     0.058264
      px      :     0.013796
      py      :     0.032722

 32 H s       :     0.658720  s :     0.658720
      pz      :     0.030763  p :     0.156794
      px      :     0.075946
      py      :     0.050085

 33 H s       :     0.657118  s :     0.657118
      pz      :     0.071715  p :     0.159767
      px      :     0.047018
      py      :     0.041034

 34 H s       :     0.814106  s :     0.814106
      pz      :     0.016609  p :     0.062048
      px      :     0.013354
      py      :     0.032085

 35 H s       :     0.815206  s :     0.815206
      pz      :     0.018088  p :     0.061670
      px      :     0.021228
      py      :     0.022354

 36 H s       :     0.819694  s :     0.819694
      pz      :     0.025460  p :     0.061607
      px      :     0.021311
      py      :     0.014836

 37 H s       :     0.820786  s :     0.820786
      pz      :     0.012311  p :     0.061274
      px      :     0.014665
      py      :     0.034298



                      *****************************
                      * MAYER POPULATION ANALYSIS *
                      *****************************

  NA   - Mulliken gross atomic population
  ZA   - Total nuclear charge
  QA   - Mulliken gross atomic charge
  VA   - Mayer's total valence
  BVA  - Mayer's bonded valence
  FA   - Mayer's free valence

  ATOM       NA         ZA         QA         VA         BVA        FA
  0 O      8.3954     8.0000    -0.3954     2.0895     2.0895     0.0000
  1 O      8.3988     8.0000    -0.3988     2.0857     2.0857     0.0000
  2 C      5.8459     6.0000     0.1541     3.3140     3.3140    -0.0000
  3 C      5.9414     6.0000     0.0586     3.7148     3.7148     0.0000
  4 C      5.9139     6.0000     0.0861     3.4866     3.4866     0.0000
  5 C      6.2778     6.0000    -0.2778     3.9706     3.9706     0.0000
  6 C      5.8753     6.0000     0.1247     3.7266     3.7266     0.0000
  7 C      6.2568     6.0000    -0.2568     3.8704     3.8704    -0.0000
  8 C      5.8061     6.0000     0.1939     4.0043     4.0043    -0.0000
  9 C      6.2503     6.0000    -0.2503     3.8753     3.8753     0.0000
 10 C      5.7446     6.0000     0.2554     3.9477     3.9477    -0.0000
 11 C      6.2506     6.0000    -0.2506     3.9193     3.9193     0.0000
 12 C      6.1925     6.0000    -0.1925     3.8716     3.8716     0.0000
 13 C      6.1386     6.0000    -0.1386     3.9228     3.9228    -0.0000
 14 C      6.1977     6.0000    -0.1977     3.9164     3.9164    -0.0000
 15 C      6.2270     6.0000    -0.2270     3.9656     3.9656    -0.0000
 16 C      6.1459     6.0000    -0.1459     3.8137     3.8137     0.0000
 17 C      6.0884     6.0000    -0.0884     3.8345     3.8345    -0.0000
 18 C      6.2648     6.0000    -0.2648     3.9079     3.9079     0.0000
 19 C      6.2660     6.0000    -0.2660     3.9377     3.9377     0.0000
 20 H      0.8770     1.0000     0.1230     0.9808     0.9808     0.0000
 21 H      0.8791     1.0000     0.1209     0.9829     0.9829    -0.0000
 22 H      0.8548     1.0000     0.1452     0.9678     0.9678     0.0000
 23 H      0.8702     1.0000     0.1298     0.9637     0.9637     0.0000
 24 H      0.8826     1.0000     0.1174     0.9742     0.9742     0.0000
 25 H      0.8984     1.0000     0.1016     0.9697     0.9697     0.0000
 26 H      0.8943     1.0000     0.1057     0.9689     0.9689     0.0000
 27 H      0.9049     1.0000     0.0951     0.9738     0.9738    -0.0000
 28 H      0.8882     1.0000     0.1118     0.9886     0.9886    -0.0000
 29 H      0.8949     1.0000     0.1051     0.9890     0.9890     0.0000
 30 H      0.8825     1.0000     0.1175     0.9772     0.9772     0.0000
 31 H      0.8985     1.0000     0.1015     0.9751     0.9751    -0.0000
 32 H      0.6779     1.0000     0.3221     0.9202     0.9202    -0.0000
 33 H      0.6772     1.0000     0.3228     0.9235     0.9235     0.0000
 34 H      0.8754     1.0000     0.1246     0.9756     0.9756     0.0000
 35 H      0.8764     1.0000     0.1236     0.9758     0.9758     0.0000
 36 H      0.8913     1.0000     0.1087     0.9742     0.9742     0.0000
 37 H      0.8989     1.0000     0.1011     0.9779     0.9779     0.0000

  Mayer bond orders larger than 0.100000
B(  0-O ,  8-C ) :   1.1574 B(  0-O , 32-H ) :   0.8657 B(  1-O , 10-C ) :   1.1335 
B(  1-O , 33-H ) :   0.8619 B(  2-C ,  3-C ) :   0.8587 B(  2-C ,  7-C ) :   1.3187 
B(  2-C ,  8-C ) :   1.2348 B(  3-C ,  5-C ) :   1.4246 B(  3-C ,  9-C ) :   1.3278 
B(  4-C ,  5-C ) :   1.3456 B(  4-C , 10-C ) :   1.2623 B(  4-C , 11-C ) :   0.9040 
B(  5-C , 20-H ) :   0.9532 B(  6-C ,  7-C ) :   1.3860 B(  6-C , 12-C ) :   0.9135 
B(  6-C , 13-C ) :   1.3661 B(  7-C , 21-H ) :   0.9694 B(  8-C , 15-C ) :   1.4228 
B(  9-C , 14-C ) :   1.4108 B(  9-C , 22-H ) :   0.9840 B( 10-C , 14-C ) :   1.4063 
B( 11-C , 16-C ) :   0.9565 B( 11-C , 23-H ) :   0.9789 B( 11-C , 24-H ) :   0.9664 
B( 12-C , 17-C ) :   0.9658 B( 12-C , 25-H ) :   0.9639 B( 12-C , 26-H ) :   0.9728 
B( 13-C , 15-C ) :   1.4214 B( 13-C , 27-H ) :   0.9768 B( 14-C , 28-H ) :   0.9824 
B( 15-C , 29-H ) :   0.9830 B( 16-C , 18-C ) :   1.8941 B( 16-C , 30-H ) :   0.9564 
B( 17-C , 19-C ) :   1.9264 B( 17-C , 31-H ) :   0.9546 B( 18-C , 34-H ) :   0.9673 
B( 18-C , 35-H ) :   0.9637 B( 19-C , 36-H ) :   0.9662 B( 19-C , 37-H ) :   0.9627 


-------
TIMINGS
-------

Total SCF time: 0 days 0 hours 0 min 20 sec 

Total time                  ....      20.035 sec
Sum of individual times     ....      19.942 sec  ( 99.5%)

SCF preparation             ....       0.645 sec  (  3.2%)
Fock matrix formation       ....      18.109 sec  ( 90.4%)
  Startup                   ....       0.036 sec  (  0.2% of F)
  Split-RI-J                ....       1.239 sec  (  6.8% of F)
  Chain of spheres X        ....      15.336 sec  ( 84.7% of F)
  XC integration            ....       1.391 sec  (  7.7% of F)
    Basis function eval.    ....       0.319 sec  ( 23.0% of XC)
    Density eval.           ....       0.399 sec  ( 28.6% of XC)
    XC-Functional eval.     ....       0.027 sec  (  1.9% of XC)
    XC-Potential eval.      ....       0.504 sec  ( 36.2% of XC)
Diagonalization             ....       0.000 sec  (  0.0%)
Density matrix formation    ....       0.104 sec  (  0.5%)
Total Energy calculation    ....       0.059 sec  (  0.3%)
Population analysis         ....       0.121 sec  (  0.6%)
Orbital Transformation      ....       0.150 sec  (  0.8%)
Orbital Orthonormalization  ....       0.000 sec  (  0.0%)
DIIS solution               ....       0.175 sec  (  0.9%)
SOSCF solution              ....       0.580 sec  (  2.9%)
Finished LeanSCF after  20.1 sec

Maximum memory used throughout the entire LEANSCF-calculation: 104.2 MB

-------------------------   --------------------
FINAL SINGLE POINT ENERGY      -846.968440939598
-------------------------   --------------------

                                *** OPTIMIZATION RUN DONE ***



           ************************************************************
           *        Program running with 20 parallel MPI-processes    *
           *              working on a common directory               *
           ************************************************************

------------------------------------------------------------------------------
                              ORCA PROPERTY CALCULATIONS
------------------------------------------------------------------------------

GBWName                                 ... honokiol2.gbw
Number of atoms                         ...     38
Number of basis functions               ...    728
Max core memory                         ...   5000 MB

Electric properties:
Dipole moment                           ... YES
Quadrupole moment                       ...  NO
Static polarizability (Dipole/Dipole)   ...  NO
Static polarizability (Dipole/Quad.)    ...  NO
Static polarizability (Quad./Quad.)     ...  NO
Static polarizability (Velocity)        ...  NO

Atomic electric properties:
Dipole moment                           ...  NO
Quadrupole moment                       ...  NO
Static polarizability                   ...  NO

Choice of electric origin               ... Center of mass
Position of electric origin             ...    -0.096899    -1.186359     0.027701

General magnetic properties:
Magnetizability                         ...  NO

EPR properties:
g-Tensor (aka g-matrix)                 ...  NO
Zero-Field splitting spin-orbit         ...  NO
Zero-field splitting spin-spin          ...  NO
Hyperfine couplings                     ...  NO (   0 nuclei)
Quadrupole couplings                    ...  NO (   0 nuclei)
Contact density                         ...  NO (   0 nuclei)

NMR properties:
Chemical shifts                         ...  NO (   0 nuclei)
Spin-rotation constants                 ...  NO (   0 nuclei)
Spin-spin couplings                     ...  NO (   0 nuclei,    0 pairs)

Choice of magnetic origin               ... GIAO
Position of magnetic origin             ...     0.000000     0.000000     0.000000

Properties with geometric perturbations:
SCF Hessian                             ...  NO
IR spectrum                             ...  NO
VCD spectrum                            ...  NO
X-ray spectroscopy properties:
SCF XES/XAS/RIXS spectra                ...  NO


-------------
DIPOLE MOMENT
-------------

Method             : SCF
Type of density    : Electron Density
Multiplicity       :   1
Irrep              :   0
Energy             :  -846.9684409395979401 Eh
Relativity type    : 
Basis              : AO
                                X                 Y                 Z
Electronic contribution:      2.703391524       2.804519315      12.613002525
Nuclear contribution   :     -3.541266284      -3.164442279     -13.319972826
                        -----------------------------------------
Total Dipole Moment    :     -0.837874760      -0.359922965      -0.706970301
                        -----------------------------------------
Magnitude (a.u.)       :      1.153856863
Magnitude (Debye)      :      2.932871067



--------------------
Rotational spectrum 
--------------------
 
Rotational constants in cm-1:             0.016354             0.006232             0.004761 
Rotational constants in MHz :           490.285606           186.833160           142.743851 

Dipole components along the rotational axes: 
x,y,z [a.u.] :    -0.672498    -0.932341     0.099355 
x,y,z [Debye]:    -1.709355    -2.369823     0.252540 

 

Dipole moment calculation done in   0.0 sec 

Maximum memory used throughout the entire PROP-calculation: 57.3 MB

--------------------------------
SUGGESTED CITATIONS FOR THIS RUN
--------------------------------

Below you find a list of papers that are relevant to this ORCA run
We neither can nor want to force you to cite these papers, but we appreciate if you do
You receive ORCA, which is the product of decades of hard work by many enthusiastic individuals, for free
The only thing we kindly ask in return is that you cite our papers,
We deeply appreciate it, if you show your appreciation for ORCA by not just citing the generic ORCA reference.

Please note that relegating all ORCA citations to the supporting information does *not* help us.
SI sections are not indexed - citations you put there will not count into any citation statistics
But we need these citations in order to attract the funding resources that allow us to do what we are doing

Therefore, if you are a happy ORCA user, please consider citing a few of the papers listed below in the main body of your paper

In addition to the list printed below, the program has created the file honokiol2.bibtex that contains the list in bibtex format
You can import this file easily into all common literature databanks and citation aid programs


List of essential papers. We consider these as the minimum necessary citations

  1. Neese,F.
     Software update: the ORCA program system, version 5.0
     WIRES Comput. Molec. Sci., 2022 12(1)e1606
     doi.org/10.1002/wcms.1606

List of papers to cite with high priority. The work reported in these papers was absolutely
necessary for this run to complete.
Our perspective: the developers of density functionals and basis sets usually get cited in chemistry papers
Good! But without the algorithms to do something with them, the functionals or basis sets would not do anything.
Hence, in our opinion, the algorithm design and method developments papers are equally worthy of getting cited

  1. Neese,F.
     An improvement of the resolution of the identity approximation for the formation of the Coulomb matrix
     J. Comp. Chem., 2003 24(14)1740-1747
     doi.org/10.1002/jcc.10318
  2. Neese,F.; Wennmohs,F.; Hansen,A.; Becker,U.
     Efficient, approximate and parallel Hartree-Fock and hybrid DFT calculations. A 'chain-of-spheres' algorithm for the Hartree-Fock exchange
     Chem. Phys., 2009 356(1-3)98-109
     doi.org/10.1016/j.chemphys.2008.10.036
  3. Helmich-Paris,B.; de Souza,B.; Neese,F.; Izsák,R.
     An improved chain of spheres for exchange algorithm
     J. Chem. Phys., 2021 155 104109
     doi.org/doi: 10.1063/5.0058766.
  4. Neese,F.
     The SHARK Integral Generation and Digestion System
     J. Comp. Chem., 2022  1-16
     doi.org/10.1002/jcc.26942

List of suggested additional citations. These are papers that are important in the 'surrounding' of 
of this run, or papers that preceded the highly important papers. If you like your results we are grateful for a citation.

  1. Izsak,R.; Neese,F.
     An overlap fitted chain of spheres exchange method
     J. Chem. Phys., 2011 135 144105
     doi.org/10.1063/1.3646921
  2. Izsak,R.; Hansen,A.; Neese,F.
     The resolution of identity and chain of spheres approximations for the LPNO-CCSD singles Fock term
     Molec. Phys., 2012 110 2413-2417
     doi.org/10.1080/00268976.2012.687466
  3. Neese,F.
     The ORCA program system
     WIRES Comput. Molec. Sci., 2012 2(1)73-78
     doi.org/10.1002/wcms.81
  4. Izsak,R.; Neese,F.; Klopper,W.
     Robust fitting techniques in the chain of spheres approximation to the Fock exchange: The role of the complementary space
     J. Chem. Phys., 2013 139 
     doi.org/10.1063/1.4819264
  5. Neese,F.
     Software update: the ORCA program system, version 4.0
     WIRES Comput. Molec. Sci., 2018 8(1)1-6
     doi.org/10.1002/wcms.1327
  6. Neese,F.; Wennmohs,F.; Becker,U.; Riplinger,C.
     The ORCA quantum chemistry program package
     J. Chem. Phys., 2020 152 Art. No. L224108
     doi.org/10.1063/5.0004608

List of optional additional citations

  1. Neese,F.
     Approximate second-order SCF convergence for spin unrestricted wavefunctions
     Chem. Phys. Lett., 2000 325(1-3)93-98
     doi.org/10.1016/s0009-2614(00)00662-x

Timings for individual modules:

Sum of individual times          ...      159.725 sec (=   2.662 min)
Startup calculation              ...       11.387 sec (=   0.190 min)   7.1 %
SCF iterations                   ...      105.901 sec (=   1.765 min)  66.3 %
Property calculations            ...        0.879 sec (=   0.015 min)   0.6 %
SCF Gradient evaluation          ...       41.522 sec (=   0.692 min)  26.0 %
Geometry relaxation              ...        0.035 sec (=   0.001 min)   0.0 %
                             ****ORCA TERMINATED NORMALLY****
TOTAL RUN TIME: 0 days 0 hours 2 minutes 42 seconds 438 msec
